 argument  1 = helium.nw



============================== echo of input deck ==============================
echo
start helium

permanent_dir ./perm
scratch_dir ./scratch

charge 1
geometry units angstroms noautosym
 He 0 0 0
 H 0.9295 0 0
end

basis
 * library sto-3g
end

scf
print overlap kinetic potential ao2eints debug
end
task scf
================================================================================


                                         
                                         


              Northwest Computational Chemistry Package (NWChem) 6.6
              ------------------------------------------------------


                    Environmental Molecular Sciences Laboratory
                       Pacific Northwest National Laboratory
                                Richland, WA 99352

                              Copyright (c) 1994-2015
                       Pacific Northwest National Laboratory
                            Battelle Memorial Institute

             NWChem is an open-source computational chemistry package
                        distributed under the terms of the
                      Educational Community License (ECL) 2.0
             A copy of the license is included with this distribution
                              in the LICENSE.TXT file

                                  ACKNOWLEDGMENT
                                  --------------

            This software and its documentation were developed at the
            EMSL at Pacific Northwest National Laboratory, a multiprogram
            national laboratory, operated for the U.S. Department of Energy
            by Battelle under Contract Number DE-AC05-76RL01830. Support
            for this work was provided by the Department of Energy Office
            of Biological and Environmental Research, Office of Basic
            Energy Sciences, and the Office of Advanced Scientific Computing.


           Job information
           ---------------

    hostname        = derek
    program         = nwchem
    date            = Sun Sep 24 16:37:43 2017

    compiled        = Mon_Feb_15_08:24:17_2016
    source          = /build/nwchem-MF0R1k/nwchem-6.6+r27746
    nwchem branch   = 6.6
    nwchem revision = 27746
    ga revision     = 10594
    input           = helium.nw
    prefix          = helium.
    data base       = ./perm/helium.db
    status          = startup
    nproc           =        1
    time left       =     -1s



           Memory information
           ------------------

    heap     =   13107200 doubles =    100.0 Mbytes
    stack    =   13107197 doubles =    100.0 Mbytes
    global   =   26214400 doubles =    200.0 Mbytes (distinct from heap & stack)
    total    =   52428797 doubles =    400.0 Mbytes
    verify   = yes
    hardfail = no 


           Directory information
           ---------------------

  0 permanent = ./perm
  0 scratch   = ./scratch




                                NWChem Input Module
                                -------------------



 Scaling coordinates for geometry "geometry" by  1.889725989
 (inverse scale =  0.529177249)


          ------
          auto-z
          ------


                             Geometry "geometry" -> ""
                             -------------------------

 Output coordinates in angstroms (scale by  1.889725989 to convert to a.u.)

  No.       Tag          Charge          X              Y              Z
 ---- ---------------- ---------- -------------- -------------- --------------
    1 He                   2.0000    -0.30983333     0.00000000     0.00000000
    2 H                    1.0000     0.61966667     0.00000000     0.00000000

      Atomic Mass 
      ----------- 

      He                 4.002600
      H                  1.007825


 Effective nuclear repulsion energy (a.u.)       1.1386277547

            Nuclear Dipole moment (a.u.) 
            ----------------------------
        X                 Y               Z
 ---------------- ---------------- ----------------
     0.0000000000     0.0000000000     0.0000000000



                                Z-matrix (autoz)
                                -------- 

 Units are Angstrom for bonds and degrees for angles

      Type          Name      I     J     K     L     M      Value
      ----------- --------  ----- ----- ----- ----- ----- ----------
    1 Stretch                  1     2                       0.92950


            XYZ format geometry
            -------------------
     2
 geometry
 He                   -0.30983333     0.00000000     0.00000000
 H                     0.61966667     0.00000000     0.00000000



 Summary of "ao basis" -> "" (cartesian)
 ------------------------------------------------------------------------------
       Tag                 Description            Shells   Functions and Types
 ---------------- ------------------------------  ------  ---------------------
 *                           sto-3g                   on all atoms 


                      Basis "ao basis" -> "ao basis" (cartesian)
                      -----
  He (Helium)
  -----------
            Exponent  Coefficients 
       -------------- ---------------------------------------------------------
  1 S  6.36242139E+00  0.154329
  1 S  1.15892300E+00  0.535328
  1 S  3.13649790E-01  0.444635

  H (Hydrogen)
  ------------
            Exponent  Coefficients 
       -------------- ---------------------------------------------------------
  1 S  3.42525091E+00  0.154329
  1 S  6.23913730E-01  0.535328
  1 S  1.68855400E-01  0.444635



 Summary of "ao basis" -> "ao basis" (cartesian)
 ------------------------------------------------------------------------------
       Tag                 Description            Shells   Functions and Types
 ---------------- ------------------------------  ------  ---------------------
 He                          sto-3g                  1        1   1s
 H                           sto-3g                  1        1   1s



 Setting fock-build task_bf   :      -1
                    maxquartet:   10000
                    maxeri    :  129600
                    maxscr    :       0
                    intacc    : 0.0D+00
                    denscreen : T
                    dentol    : 1.0D-06

                                 NWChem SCF Module
                                 -----------------



  ao basis        = "ao basis"
  functions       =     2
  atoms           =     2
  closed shells   =     1
  open shells     =     0
  charge          =   1.00
  wavefunction    = RHF 
  input vectors   = atomic
  output vectors  = ./perm/helium.movecs
  use symmetry    = F
  symmetry adapt  = F


 Summary of "ao basis" -> "ao basis" (cartesian)
 ------------------------------------------------------------------------------
       Tag                 Description            Shells   Functions and Types
 ---------------- ------------------------------  ------  ---------------------
 He                          sto-3g                  1        1   1s
 H                           sto-3g                  1        1   1s




                         Geometry "geometry" -> "geometry"
                         ---------------------------------

 Output coordinates in angstroms (scale by  1.889725989 to convert to a.u.)

  No.       Tag          Charge          X              Y              Z
 ---- ---------------- ---------- -------------- -------------- --------------
    1 He                   2.0000    -0.30983333     0.00000000     0.00000000
    2 H                    1.0000     0.61966667     0.00000000     0.00000000

      Atomic Mass 
      ----------- 

      He                 4.002600
      H                  1.007825


 Effective nuclear repulsion energy (a.u.)       1.1386277547

            Nuclear Dipole moment (a.u.) 
            ----------------------------
        X                 Y               Z
 ---------------- ---------------- ----------------
     0.0000000000     0.0000000000     0.0000000000



                                Z-matrix (autoz)
                                -------- 

 Units are Angstrom for bonds and degrees for angles

      Type          Name      I     J     K     L     M      Value
      ----------- --------  ----- ----- ----- ----- ----- ----------
    1 Stretch                  1     2                       0.92950


      Symmetry information
      --------------------

 Group name             C1        
 Group number              1
 Group order               1
 No. of unique centers     2



                  Character table for group C1      

                  1e     
        a          1.000

      Symmetry unique atoms

     1    2

      Mapping of centers


      Group operations



                      Basis "ao basis" -> "ao basis" (cartesian)
                      -----
  He (Helium)
  -----------
            Exponent  Coefficients 
       -------------- ---------------------------------------------------------
  1 S  6.36242139E+00  0.154329
  1 S  1.15892300E+00  0.535328
  1 S  3.13649790E-01  0.444635

  H (Hydrogen)
  ------------
            Exponent  Coefficients 
       -------------- ---------------------------------------------------------
  1 S  3.42525091E+00  0.154329
  1 S  6.23913730E-01  0.535328
  1 S  1.68855400E-01  0.444635



    Basis function labels
    ---------------------
       No.  Atm El Type
       ---  --- -- ----
        1    1 He s          
        2    2 H  s          
 <<< GBS_MAP_PRINT >>>
  total number of atoms           :                    2
  total number of contractions    :                    2
  total number of primitives      :                    6
  total number of coefficients    :                    6
  total number of basis functions :                    2
  
 ================================================================================
  center -> unique center map          <ibs_ce2uce>
         -> contraction range map      <ibs_ce2cnr>
 ================================================================================
 center:   1  maps to unique center:  1
              has   1  contractions   <first:   1>  <last:   1>

 center:   2  maps to unique center:  2
              has   1  contractions   <first:   2>  <last:   2>

  
 ================================================================================
  contraction -> center map                                     <ibs_cn2ce>
              -> unique contraction in basis set                <ibs_cn2ucn>
              -> basis function range                           <ibs_cn2bfr>
 ================================================================================
 contraction   1  is on center:  1
                  is represented by unique contraction:  1
                  has    1 basis functions <first:    1>  <last:    1>

 contraction   2  is on center:  2
                  is represented by unique contraction:  2
                  has    1 basis functions <first:    2>  <last:    2>


 nwchem basis set
 ics=  1 ib=  0 nat=  1 shz=  1 gc=  0 ie=  3 lcf=  1 fcf=  0 type= 1
 ics=  2 ib=  3 nat=  2 shz=  1 gc=  0 ie=  6 lcf=  2 fcf=  1 type= 1
 texas basis set
 ics=  1 ib=  3 nat=  2 shz=  1 gc=  0 ie=  6 lcf=  1 fcf=  0 type= 1
 ics=  2 ib=  0 nat=  1 shz=  1 gc=  0 ie=  3 lcf=  2 fcf=  1 type= 1
 translation shell-nwchem -> shell-texas
                    1                    2
                    2                    1
 ====================================
 Begin kinetic 1-e integrals
 ====================================
1eke          1   He s     1   He s           1.41176318
1eke          2   H  s     1   He s           0.10995609
1eke          1   He s     2   H  s           0.10995609
1eke          2   H  s     2   H  s           0.76003188
 ====================================
 End kinetic 1-e integrals
 ====================================
 ====================================
 Begin potential 1-e integrals
 ====================================
1epe          1   He s     1   He s          -3.90675296
1epe          2   H  s     1   He s          -1.22095593
1epe          1   He s     2   H  s          -1.22095593
1epe          2   H  s     2   H  s          -2.31909164
 ====================================
 End potential 1-e integrals
 ====================================
 ====================================
 Begin overlap 1-e integrals
 ====================================
1eov          1   He s     1   He s           1.00000000
1eov          2   H  s     1   He s           0.43431147
1eov          1   He s     2   H  s           0.43431147
1eov          2   H  s     2   H  s           1.00000000
 ====================================
 End overlap 1-e integrals
 ====================================
 ====================================
 Begin all 2-e integrals
 ====================================
 ao     1    1    1    1          1.05571294
 ao     1    1    1    2          0.34321971
 ao     1    1    2    1          0.34321971
 ao     1    1    2    2          0.52338930
 ao     1    2    1    1          0.34321971
 ao     1    2    1    2          0.14063910
 ao     1    2    2    1          0.14063910
 ao     1    2    2    2          0.27894308
 ao     2    1    1    1          0.34321971
 ao     2    1    1    2          0.14063910
 ao     2    1    2    1          0.14063910
 ao     2    1    2    2          0.27894308
 ao     2    2    1    1          0.52338930
 ao     2    2    1    2          0.27894308
 ao     2    2    2    1          0.27894308
 ao     2    2    2    2          0.77460594
 ====================================
 End all 2-e integrals
 ====================================

 Schwarz integral screening summary 
 ---------------------------------- 

        No. of atom pairs =       3
       No. of shell pairs =       3

 Atomic screening 

   value      no.     value      no.     value      no.     value      no.   
  -------- ------    -------- ------    -------- ------    -------- ------   
  0.00D+00      0    1.00D-13      0    1.00D-12      0    1.00D-11      0
  1.00D-10      0    1.00D-09      0    1.00D-08      0    1.00D-07      0
  1.00D-06      0    1.00D-05      0    1.00D-04      0    1.00D-03      0
  1.00D-02      0    1.00D-01      0    1.00D+00      3    1.00D+01      0


 Shell screening 

   value      no.     value      no.     value      no.     value      no.   
  -------- ------    -------- ------    -------- ------    -------- ------   
  0.00D+00      0    1.00D-13      0    1.00D-12      0    1.00D-11      0
  1.00D-10      0    1.00D-09      0    1.00D-08      0    1.00D-07      0
  1.00D-06      0    1.00D-05      0    1.00D-04      0    1.00D-03      0
  1.00D-02      0    1.00D-01      0    1.00D+00      3    1.00D+01      0



 global array: Temp Over[1:2,1:2],  handle: -996 

            1           2  
       ----------- -----------
   1       1.00000     0.43431
   2       0.43431     1.00000

 Forming initial guess at       0.0s


      Superposition of Atomic Density Guess
      -------------------------------------


      charge =       2.0 He (Helium)

      symmetry species            s     p     d     f
      number of basis functions = 3
      number of cont. functions = 1
      number of closed shells   = 1
      number of open shells     = 0
      open shell occupation     = 0
  isym                     1
        nbas                      3
        ncsh                      1
        nosh                      0
        nccup                     0
        n1                        6
        nbc                       1
        function                     1
                1            6.362421            0.154329
                2            1.158923            0.535328
                3            0.313650            0.444635
   0.00000000D+00  0.00000000D+00  0.00000000D+00  0.00000000D+00
   0.00000000D+00  0.00000000D+00  0.00000000D+00  0.00000000D+00
   0.00000000D+00  0.00000000D+00  0.00000000D+00  0.00000000D+00
   0.00000000D+00  0.00000000D+00  0.00000000D+00  0.00000000D+00
   0.00000000D+00  0.00000000D+00  0.00000000D+00  0.00000000D+00
   0.00000000D+00  0.00000000D+00  0.00000000D+00  0.00000000D+00



        final scf results at iteration   2
        total hf energy    kinetic energy    virial theorem
      -0.2807783958E+01   0.2823526365E+01  -0.1994424558E+01

        orbital energies and eigenvectors
 

        -0.87604
 
        1.000000

      charge =       1.0 H (Hydrogen)

      symmetry species            s     p     d     f
      number of basis functions = 3
      number of cont. functions = 1
      number of closed shells   = 0
      number of open shells     = 1
      open shell occupation     = 1
  isym                     1
        nbas                      3
        ncsh                      0
        nosh                      1
        nccup                     1
        n1                        6
        nbc                       1
        function                     1
                1            3.425251            0.154329
                2            0.623914            0.535328
                3            0.168855            0.444635
  -0.50000000D+00  0.00000000D+00  0.00000000D+00  0.00000000D+00
   0.00000000D+00  0.00000000D+00  0.00000000D+00  0.00000000D+00
   0.00000000D+00  0.00000000D+00  0.00000000D+00  0.00000000D+00
   0.00000000D+00  0.00000000D+00  0.00000000D+00  0.00000000D+00
   0.00000000D+00  0.00000000D+00  0.00000000D+00  0.00000000D+00
   0.00000000D+00  0.00000000D+00  0.00000000D+00  0.00000000D+00



        final scf results at iteration   2
        total hf energy    kinetic energy    virial theorem
      -0.4665818496E+00   0.7600318836E+00  -0.1613897732E+01

        orbital energies and eigenvectors
 

        -0.46658
 
        1.000000
 Sum of atomic energies:          -3.27436581

 global array: Guess density[1:2,1:2],  handle: -996 

            1           2  
       ----------- -----------
   1       2.00000     0.00000
   2       0.00000     1.00000

 global array: Temp HCore[1:2,1:2],  handle: -994 

            1           2  
       ----------- -----------
   1       1.41176     0.10996
   2       0.10996     0.76003

 global array: Temp HCore[1:2,1:2],  handle: -994 

            1           2  
       ----------- -----------
   1       1.00000     0.43431
   2       0.43431     1.00000


                              ----------------------------
                                 initial guess density   
                              ----------------------------



 Renormalizing density from       3.00 to      2
 *** fock_2e: xc_active  F
  oread, owrite, incmax, incmin, incomplete  F F                    0                    0                    0
  Building direct    9.9999999999999995E-008
  tol2e= 1.0D-07 denmax= 1.3D+00 dentol= 5.6D-08 integ_acc= 1.0D-11 odenscr=T oread=F owrite=F
  Before combining, #pair blocks =                     2
  ij type                     1                    1                    1
  ij type                     2                    2                    3
  After combining, #pair blocks =                     1
  ij type                     1                    1                    3
     ij    i  j   it jt   ip jp   ig jg  iu  ju
     --    -  -   -- --   -- --   -- --  --  --
      1    1  1    0  0    3  3    1  1    1  1   1.00D+00   100
      2    2  2    0  0    3  3    1  1    2  2   1.00D+00   100
      3    2  1    0  0    3  3    1  1    2  1   1.00D+00   100
  Before combining, #pair blocks =                     2
  ij type                     1                    1                    1
  ij type                     2                    2                    3
  After combining, #pair blocks =                     1
  ij type                     1                    1                    3
     ij    i  j   it jt   ip jp   ig jg  iu  ju
     --    -  -   -- --   -- --   -- --  --  --
      1    1  1    0  0    3  3    1  1    1  1   1.00D+00   100
      2    2  2    0  0    3  3    1  1    2  2   1.00D+00   100
      3    2  1    0  0    3  3    1  1    2  1   1.00D+00   100
  Before combining, #pair blocks =                     2
  ij type                     1                    1                    1
  ij type                     2                    2                    3
  After combining, #pair blocks =                     1
  ij type                     1                    1                    3
     ij    i  j   it jt   ip jp   ig jg  iu  ju
     --    -  -   -- --   -- --   -- --  --  --
      1    1  1    0  0    3  3    1  1    1  1   1.00D+00   100
      2    2  2    0  0    3  3    1  1    2  2   1.00D+00   100
      3    2  1    0  0    3  3    1  1    2  1   1.00D+00   100
  Before combining, #pair blocks =                     2
  ij type                     1                    1                    1
  ij type                     2                    2                    3
  After combining, #pair blocks =                     1
  ij type                     1                    1                    3
     ij    i  j   it jt   ip jp   ig jg  iu  ju
     --    -  -   -- --   -- --   -- --  --  --
      1    1  1    0  0    3  3    1  1    1  1   1.00D+00   100
      2    2  2    0  0    3  3    1  1    2  2   1.00D+00   100
      3    2  1    0  0    3  3    1  1    2  1   1.00D+00   100
  Before combining, #pair blocks =                     2
  ij type                     1                    1                    1
  ij type                     2                    2                    3
  After combining, #pair blocks =                     1
  ij type                     1                    1                    3
     ij    i  j   it jt   ip jp   ig jg  iu  ju
     --    -  -   -- --   -- --   -- --  --  --
      1    1  1    0  0    3  3    1  1    1  1   1.00D+00   100
      2    2  2    0  0    3  3    1  1    2  2   1.00D+00   100
      3    2  1    0  0    3  3    1  1    2  1   1.00D+00   100
  max_p                    10  ntype                     1  chunk                     1
 raw= 6.0D+00 schwarz= 6.0D+00 sym= 6.0D+00 dens= 6.0D+00

 Integral screening statistics
 -----------------------------

       Direct Fock builds =          1
   Atom quartets computed =          0 (  0.00%)
  Shell quartets rejected =          0 (  0.00%)
  Shell quartets computed =          0 (  0.00%)


      Non-variational initial energy
      ------------------------------

 Total energy =      -2.269397
 1-e energy   =      -4.366026
 2-e energy   =       0.958002
 HOMO         =      -1.510869
 LUMO         =      -0.338313


 Setting fock-build task_bf   :      -1
                    maxquartet:   10000
                    maxeri    :  129600
                    maxscr    :       0
                    intacc    : 0.0D+00
                    denscreen : T
                    dentol    : 1.0D-06


                                Initial MO vectors
                                ------------------


 global array: scf_init: MOs[1:2,1:2],  handle: -1000 

            1           2  
       ----------- -----------
   1       0.92504    -0.61382
   2       0.15114     1.09983

 Wrote molecular orbitals to ./perm/helium.movecs


                      ROHF Initial Molecular Orbital Analysis
                      ---------------------------------------

 Vector    1  Occ=2.000000D+00  E=-1.510869D+00
              MO Center= -2.4D-01,  0.0D+00,  0.0D+00, r^2= 3.6D-01
   Bfn.  Coefficient  Atom+Function         Bfn.  Coefficient  Atom+Function  
  ----- ------------  ---------------      ----- ------------  ---------------
     1      0.925045  1 He s                  2      0.151145  2 H  s          

 Vector    2  Occ=0.000000D+00  E=-3.383132D-01
              MO Center=  6.0D-01,  0.0D+00,  0.0D+00, r^2= 6.0D-01
   Bfn.  Coefficient  Atom+Function         Bfn.  Coefficient  Atom+Function  
  ----- ------------  ---------------      ----- ------------  ---------------
     2      1.099833  2 H  s                  1     -0.613816  1 He s          


 Starting SCF solution at       0.0s

 ready to solve ...                    0


 ----------------------------------------------
         Quadratically convergent ROHF

 Convergence threshold     :          1.000E-04
 Maximum no. of iterations :           30
 Final Fock-matrix accuracy:          1.000E-07
 ----------------------------------------------


 global array: rohf_s_e: MOs[1:2,1:2],  handle: -992 

            1           2  
       ----------- -----------
   1       0.92504    -0.61382
   2       0.15114     1.09983

 global array: rohf: cdens[1:2,1:2],  handle: -991 

            1           2  
       ----------- -----------
   1       1.71142     0.27963
   2       0.27963     0.04569

 global array: rohf: hcore[1:2,1:2],  handle: -989 

            1           2  
       ----------- -----------
   1      -2.49499    -1.11100
   2      -1.11100    -1.55906
 *** fock_2e: xc_active  F
  int2e_file: opening ./scratch/helium.aoints.0
   0: nuse=   1(   0.9) avail=    17015Mb (out of    17015Mb) on ./scratch
  int2e_file: rewinding ./scratch/helium.aoints.0
  oread, owrite, incmax, incmin, incomplete  F T                    0                    0                    0
  Building direct    1.0000000000000000E-008
  int2e_file: set range                     1                    2                    1                    2                    1                    2                    1                    2                    6
  tol2e= 1.0D-08 denmax= 1.7D+00 dentol= 3.4D-09 integ_acc= 1.0D-11 odenscr=T oread=F owrite=T
  Before combining, #pair blocks =                     2
  ij type                     1                    1                    1
  ij type                     2                    2                    3
  After combining, #pair blocks =                     1
  ij type                     1                    1                    3
     ij    i  j   it jt   ip jp   ig jg  iu  ju
     --    -  -   -- --   -- --   -- --  --  --
      1    1  1    0  0    3  3    1  1    1  1   1.00D+00   100
      2    2  2    0  0    3  3    1  1    2  2   1.00D+00   100
      3    2  1    0  0    3  3    1  1    2  1   1.00D+00   100
  Before combining, #pair blocks =                     2
  ij type                     1                    1                    1
  ij type                     2                    2                    3
  After combining, #pair blocks =                     1
  ij type                     1                    1                    3
     ij    i  j   it jt   ip jp   ig jg  iu  ju
     --    -  -   -- --   -- --   -- --  --  --
      1    1  1    0  0    3  3    1  1    1  1   1.00D+00   100
      2    2  2    0  0    3  3    1  1    2  2   1.00D+00   100
      3    2  1    0  0    3  3    1  1    2  1   1.00D+00   100
  Before combining, #pair blocks =                     2
  ij type                     1                    1                    1
  ij type                     2                    2                    3
  After combining, #pair blocks =                     1
  ij type                     1                    1                    3
     ij    i  j   it jt   ip jp   ig jg  iu  ju
     --    -  -   -- --   -- --   -- --  --  --
      1    1  1    0  0    3  3    1  1    1  1   1.00D+00   100
      2    2  2    0  0    3  3    1  1    2  2   1.00D+00   100
      3    2  1    0  0    3  3    1  1    2  1   1.00D+00   100
  Before combining, #pair blocks =                     2
  ij type                     1                    1                    1
  ij type                     2                    2                    3
  After combining, #pair blocks =                     1
  ij type                     1                    1                    3
     ij    i  j   it jt   ip jp   ig jg  iu  ju
     --    -  -   -- --   -- --   -- --  --  --
      1    1  1    0  0    3  3    1  1    1  1   1.00D+00   100
      2    2  2    0  0    3  3    1  1    2  2   1.00D+00   100
      3    2  1    0  0    3  3    1  1    2  1   1.00D+00   100
  Before combining, #pair blocks =                     2
  ij type                     1                    1                    1
  ij type                     2                    2                    3
  After combining, #pair blocks =                     1
  ij type                     1                    1                    3
     ij    i  j   it jt   ip jp   ig jg  iu  ju
     --    -  -   -- --   -- --   -- --  --  --
      1    1  1    0  0    3  3    1  1    1  1   1.00D+00   100
      2    2  2    0  0    3  3    1  1    2  2   1.00D+00   100
      3    2  1    0  0    3  3    1  1    2  1   1.00D+00   100
  max_p                    10  ntype                     1  chunk                     1
  int2e_file: recorded position at                     1
  int2e_file: write file                     6                    6

 #quartets = 6.000D+00 #integrals = 6.000D+00 #direct =  0.0% #cached =100.0%

 raw= 6.0D+00 schwarz= 6.0D+00 sym= 6.0D+00 dens= 6.0D+00

 Integral screening statistics
 -----------------------------

       Direct Fock builds =          2
   Atom quartets computed =          0 (  0.00%)
  Shell quartets rejected =          0 (  0.00%)
  Shell quartets computed =          0 (  0.00%)


 Integral file          = ./scratch/helium.aoints.0
 Record size in doubles =  65536        No. of integs per rec  =  43688
 Max. records in memory =      2        Max. records in file   =  32327
 No. of bits per label  =      8        No. of bits per value  =     64

 int2e_file: wrote     12 integrals in record    1 of     1.
  Symmetrized combined AO fock matrices 

 global array: rohf: cfock[1:2,1:2],  handle: -990 

            1           2  
       ----------- -----------
   1      -1.47493    -0.82512
   2      -0.82512    -0.68797

 global array: rohf_init: FCV[1:2,1:2],  handle: -996 

            1           2  
       ----------- -----------
   1      -1.50856    -0.03981
   2      -0.03981    -0.27384
  e1o=  0.00000000D+00, e1c= -4.96253955D+00, e2o=  0.00000000D+00, e2c=  9.72712630D-01

 Wrote rohf: cfock to ./scratch/helium.cfock

 total energy =      -2.851199164038
 1-e energy   =      -4.962539548281
 2-e energy   =       0.972712629537
 nucl. energy =       1.138627754706


              iter       energy          gnorm     gmax       time
             ----- ------------------- --------- --------- --------
                 1       -2.8511991640  1.59D-01  1.59D-01      0.0

                              Intermediate MO vectors
                              -----------------------


 global array: scf_init: MOs[1:2,1:2],  handle: -1000 

            1           2  
       ----------- -----------
   1       0.92504    -0.61382
   2       0.15114     1.09983


                Eigenvalues
                -----------

              1      
    1   -1.5086
    2   -0.2738

            ----- linear solve (tol: 1.0E-02 prod-acc: 1.6E-08) -----

               iter nbas    rnorm     rnorm-scal   ratio     time
               ---- ---- ----------- ----------- --------- -------
 rohf_wrap.F: in g_x =    1              0.15923515
 rohf_wrap.F: out g_x =    1              0.03224112
                  1    1  0.0000E+00  0.0000E+00    0.0000     0.0

                              ----- Line search ------

        step       energy         lsg     num-lsg   num-lsh   lsrat    time
      ------- ---------------- --------- --------- --------- ------- --------
       0.0000      -2.85119916 -5.13D-03  0.00D+00  0.00D+00 0.0D+00      0.0

 global array: rohf_s_e: MOs[1:2,1:2],  handle: -992 

            1           2  
       ----------- -----------
   1       0.90478    -0.64332
   2       0.18652     1.09439

 global array: rohf: cdens[1:2,1:2],  handle: -991 

            1           2  
       ----------- -----------
   1       1.63724     0.33752
   2       0.33752     0.06958

 global array: rohf: hcore[1:2,1:2],  handle: -989 

            1           2  
       ----------- -----------
   1      -2.49499    -1.11100
   2      -1.11100    -1.55906
 *** fock_2e: xc_active  F
  int2e_file: rewinding ./scratch/helium.aoints.0
  oread, owrite, incmax, incmin, incomplete  T F                   -1                   -1                   -1
  Building from file    9.9999999999999995E-008
 fockfile: tols    9.9999999999999995E-008   9.9999999999999995E-007   1.6372444035751319        3.7305509075563209E-008
 int2e_file: read     12 integrals in record     1 of      1.
  int2e_file: get range                     1                    2                    1                    2                    1                    2                    1                    2                    6                    6
 int2e_file: EOF at record    2 of     1?
 int2e_file: EOF at record    2 of     1?
  Symmetrized combined AO fock matrices 

 global array: rohf: cfock[1:2,1:2],  handle: -990 

            1           2  
       ----------- -----------
   1      -1.48339    -0.83745
   2      -0.83745    -0.69618

 global array: rohf_init: FCV[1:2,1:2],  handle: -996 

            1           2  
       ----------- -----------
   1      -1.52121    -0.00743
   2      -0.00743    -0.26852
  e1o=  0.00000000D+00, e1c= -4.94335213D+00, e2o=  0.00000000D+00, e2c=  9.50462715D-01

 Wrote rohf: cfock to ./scratch/helium.cfock

 total energy =      -2.854261657460
 1-e energy   =      -4.943352126975
 2-e energy   =       0.950462714809
 nucl. energy =       1.138627754706

       1.0000      -2.85426166 -9.58D-04 -9.74D-04  4.18D-03 1.9D-01      0.0

              iter       energy          gnorm     gmax       time
             ----- ------------------- --------- --------- --------
                 2       -2.8542616575  2.97D-02  2.97D-02      0.0

                              Intermediate MO vectors
                              -----------------------


 global array: scf_init: MOs[1:2,1:2],  handle: -1000 

            1           2  
       ----------- -----------
   1       0.90478    -0.64332
   2       0.18652     1.09439


                Eigenvalues
                -----------

              1      
    1   -1.5212
    2   -0.2685

            ----- linear solve (tol: 3.0E-02 prod-acc: 8.8E-09) -----

               iter nbas    rnorm     rnorm-scal   ratio     time
               ---- ---- ----------- ----------- --------- -------
 rohf_wrap.F: in g_x =    1              0.02971138
 rohf_wrap.F: out g_x =    1              0.00592948
 *** fock_2e: xc_active  F
  int2e_file: rewinding ./scratch/helium.aoints.0
  oread, owrite, incmax, incmin, incomplete  T F                   -1                   -1                   -1
  Building from file    8.8276598546210971E-009
 fockfile: tols    8.8276598546210971E-009   9.9999999999999995E-007   3.4513016261858587E-003   9.9999999999999995E-007
 int2e_file: read     12 integrals in record     1 of      1.
  int2e_file: get range                     1                    2                    1                    2                    1                    2                    1                    2                    6                    6
 int2e_file: EOF at record    2 of     1?
 int2e_file: EOF at record    2 of     1?
                  1    1  0.0000E+00  0.0000E+00    0.0000     0.0

                              ----- Line search ------

        step       energy         lsg     num-lsg   num-lsh   lsrat    time
      ------- ---------------- --------- --------- --------- ------- --------
       0.0000      -2.85426166 -2.15D-04  0.00D+00  0.00D+00 0.0D+00      0.0

 global array: rohf_s_e: MOs[1:2,1:2],  handle: -992 

            1           2  
       ----------- -----------
   1       0.90011    -0.64984
   2       0.19442     1.09301

 global array: rohf: cdens[1:2,1:2],  handle: -991 

            1           2  
       ----------- -----------
   1       1.62038     0.35000
   2       0.35000     0.07560

 global array: rohf: hcore[1:2,1:2],  handle: -989 

            1           2  
       ----------- -----------
   1      -2.49499    -1.11100
   2      -1.11100    -1.55906
 *** fock_2e: xc_active  F
  int2e_file: rewinding ./scratch/helium.aoints.0
  oread, owrite, incmax, incmin, incomplete  T F                   -1                   -1                   -1
  Building from file    9.9999999999999995E-008
 fockfile: tols    9.9999999999999995E-008   9.9999999999999995E-007   1.6203788583978480        3.8086131596088928E-008
 int2e_file: read     12 integrals in record     1 of      1.
  int2e_file: get range                     1                    2                    1                    2                    1                    2                    1                    2                    6                    6
 int2e_file: EOF at record    2 of     1?
 int2e_file: EOF at record    2 of     1?
  Symmetrized combined AO fock matrices 

 global array: rohf: cfock[1:2,1:2],  handle: -990 

            1           2  
       ----------- -----------
   1      -1.48528    -0.84014
   2      -0.84014    -0.69800

 global array: rohf_init: FCV[1:2,1:2],  handle: -996 

            1           2  
       ----------- -----------
   1      -1.52380     0.00004
   2       0.00004    -0.26764
  e1o=  0.00000000D+00, e1c= -4.93840069D+00, e2o=  0.00000000D+00, e2c=  9.45404281D-01

 Wrote rohf: cfock to ./scratch/helium.cfock

 total energy =      -2.854368649009
 1-e energy   =      -4.938400685171
 2-e energy   =       0.945404281456
 nucl. energy =       1.138627754706

       1.0000      -2.85436865  1.07D-06  8.89D-07  2.16D-04 5.0D-03      0.0

              iter       energy          gnorm     gmax       time
             ----- ------------------- --------- --------- --------
                 3       -2.8543686490  1.48D-04  1.48D-04      0.0

                              Intermediate MO vectors
                              -----------------------


 global array: scf_init: MOs[1:2,1:2],  handle: -1000 

            1           2  
       ----------- -----------
   1       0.90011    -0.64984
   2       0.19442     1.09301

            ----- linear solve (tol: 6.8E-02 prod-acc: 1.0E-10) -----

               iter nbas    rnorm     rnorm-scal   ratio     time
               ---- ---- ----------- ----------- --------- -------
 rohf_wrap.F: in g_x =    1              0.00014755
 rohf_wrap.F: out g_x =    1              0.00002937
 *** fock_2e: xc_active  F
  int2e_file: rewinding ./scratch/helium.aoints.0
  oread, owrite, incmax, incmin, incomplete  T F                   -1                   -1                   -1
  Building from file    1.0000000000000002E-010
 fockfile: tols    1.0000000000000002E-010   9.9999999999999995E-007   1.7176637117199763E-005   9.9999999999999995E-007
 int2e_file: read     12 integrals in record     1 of      1.
  int2e_file: get range                     1                    2                    1                    2                    1                    2                    1                    2                    6                    6
 int2e_file: EOF at record    2 of     1?
 int2e_file: EOF at record    2 of     1?
                  1    1  0.0000E+00  0.0000E+00    0.0000     0.0

                              ----- Line search ------

        step       energy         lsg     num-lsg   num-lsh   lsrat    time
      ------- ---------------- --------- --------- --------- ------- --------
       0.0000      -2.85436865 -5.24D-09  0.00D+00  0.00D+00 0.0D+00      0.0

 global array: rohf_s_e: MOs[1:2,1:2],  handle: -992 

            1           2  
       ----------- -----------
   1       0.90013    -0.64981
   2       0.19438     1.09302

 global array: rohf: cdens[1:2,1:2],  handle: -991 

            1           2  
       ----------- -----------
   1       1.62046     0.34994
   2       0.34994     0.07557

 global array: rohf: hcore[1:2,1:2],  handle: -989 

            1           2  
       ----------- -----------
   1      -2.49499    -1.11100
   2      -1.11100    -1.55906
 *** fock_2e: xc_active  F
  int2e_file: rewinding ./scratch/helium.aoints.0
  oread, owrite, incmax, incmin, incomplete  T F                   -1                   -1                   -1
  Building from file    9.9999999999999995E-008
 fockfile: tols    9.9999999999999995E-008   9.9999999999999995E-007   1.6204619959639086        3.8082223689499442E-008
 int2e_file: read     12 integrals in record     1 of      1.
  int2e_file: get range                     1                    2                    1                    2                    1                    2                    1                    2                    6                    6
 int2e_file: EOF at record    2 of     1?
 int2e_file: EOF at record    2 of     1?
  Symmetrized combined AO fock matrices 

 global array: rohf: cfock[1:2,1:2],  handle: -990 

            1           2  
       ----------- -----------
   1      -1.48527    -0.84013
   2      -0.84013    -0.69799

 global array: rohf_init: FCV[1:2,1:2],  handle: -996 

            1           2  
       ----------- -----------
   1      -1.52378     0.00000
   2       0.00000    -0.26764
  e1o=  0.00000000D+00, e1c= -4.93842561D+00, e2o=  0.00000000D+00, e2c=  9.45429207D-01

 Wrote rohf: cfock to ./scratch/helium.cfock

 total energy =      -2.854368651630
 1-e energy   =      -4.938425612875
 2-e energy   =       0.945429206539
 nucl. energy =       1.138627754706

       1.0000      -2.85436865 -1.25D-13 -1.05D-13  5.24D-09 2.4D-05      0.0

              iter       energy          gnorm     gmax       time
             ----- ------------------- --------- --------- --------
                 4       -2.8543686516  3.52D-09  3.52D-09      0.0


                Eigenvalues
                -----------

              1      
    1   -1.5238
    2   -0.2676

 Wrote molecular orbitals to ./perm/helium.movecs



       Final RHF  results 
       ------------------ 

         Total SCF energy =     -2.854368651630
      One-electron energy =     -4.938425612875
      Two-electron energy =      0.945429206539
 Nuclear repulsion energy =      1.138627754706

        Time for solution =      0.0s


             Final eigenvalues
             -----------------

              1      
    1   -1.5238
    2   -0.2676

                       ROHF Final Molecular Orbital Analysis
                       -------------------------------------

 Vector    1  Occ=2.000000D+00  E=-1.523784D+00
              MO Center= -2.2D-01,  0.0D+00,  0.0D+00, r^2= 3.8D-01
   Bfn.  Coefficient  Atom+Function         Bfn.  Coefficient  Atom+Function  
  ----- ------------  ---------------      ----- ------------  ---------------
     1      0.900128  1 He s                  2      0.194384  2 H  s          

 Vector    2  Occ=0.000000D+00  E=-2.676402D-01
              MO Center=  5.7D-01,  0.0D+00,  0.0D+00, r^2= 6.2D-01
   Bfn.  Coefficient  Atom+Function         Bfn.  Coefficient  Atom+Function  
  ----- ------------  ---------------      ----- ------------  ---------------
     2      1.093020  2 H  s                  1     -0.649805  1 He s          


                                 Final MO vectors
                                 ----------------


 global array: scf_init: MOs[1:2,1:2],  handle: -1000 

            1           2  
       ----------- -----------
   1       0.90013    -0.64981
   2       0.19438     1.09302

 center of mass
 --------------
 x =  -0.23218777 y =   0.00000000 z =   0.00000000

 moments of inertia (a.u.)
 ------------------
           0.000000000000           0.000000000000           0.000000000000
           0.000000000000           2.483986392248           0.000000000000
           0.000000000000           0.000000000000           2.483986392248

  Mulliken analysis of the total density
  --------------------------------------

   Bfn.    Population  Atom+Function
   ---------------------------------
     1      1.772446    1 He s          
     2      0.227554    2 H  s          

    Atom       Charge   Shell Charges
 -----------   ------   -------------------------------------------------------
    1 He   2     1.77   1.77
    2 H    1     0.23   0.23

       Multipole analysis of the density wrt the origin
       ------------------------------------------------

     L   x y z        total         open         nuclear
     -   - - -        -----         ----         -------
     0   0 0 0      1.000000      0.000000      3.000000

     1   1 0 0      0.824000      0.000000      0.000000
     1   0 1 0      0.000000      0.000000      0.000000
     1   0 0 1      0.000000      0.000000      0.000000

     2   2 0 0      0.557684      0.000000      2.056862
     2   1 1 0      0.000000      0.000000      0.000000
     2   1 0 1      0.000000      0.000000      0.000000
     2   0 2 0     -0.792506      0.000000      0.000000
     2   0 1 1      0.000000      0.000000      0.000000
     2   0 0 2     -0.792506      0.000000      0.000000


 Wrote molecular orbitals to ./perm/helium.movecs


 Parallel integral file used       1 records with       0 large values

  int2e_file: closing ./scratch/helium.aoints.0

 Task  times  cpu:        0.0s     wall:        0.0s
 Summary of allocated global arrays
-----------------------------------
  No active global arrays



                         GA Statistics for process    0
                         ------------------------------

       create   destroy   get      put      acc     scatter   gather  read&inc
calls:  134      134      379      234       92        0        0        8     
number of processes/call 1.00e+00 1.00e+00 1.00e+00 0.00e+00 0.00e+00
bytes total:             8.96e+03 5.29e+03 1.18e+03 0.00e+00 0.00e+00 6.40e+01
bytes remote:            0.00e+00 0.00e+00 0.00e+00 0.00e+00 0.00e+00 0.00e+00
Max memory consumed for GA by this process: 480 bytes
MA_summarize_allocated_blocks: starting scan ...
MA_summarize_allocated_blocks: scan completed: 0 heap blocks, 0 stack blocks
MA usage statistics:

	allocation statistics:
					      heap	     stack
					      ----	     -----
	current number of blocks	         0	         0
	maximum number of blocks	        17	        14
	current total bytes		         0	         0
	maximum total bytes		   1052008	  22509000
	maximum total K-bytes		      1053	     22509
	maximum total M-bytes		         2	        23


                                NWChem Input Module
                                -------------------





                                     CITATION
                                     --------
                Please cite the following reference when publishing
                           results obtained with NWChem:

                 M. Valiev, E.J. Bylaska, N. Govind, K. Kowalski,
              T.P. Straatsma, H.J.J. van Dam, D. Wang, J. Nieplocha,
                        E. Apra, T.L. Windus, W.A. de Jong
                 "NWChem: a comprehensive and scalable open-source
                  solution for large scale molecular simulations"
                      Comput. Phys. Commun. 181, 1477 (2010)
                           doi:10.1016/j.cpc.2010.04.018

                                      AUTHORS
                                      -------
          E. Apra, E. J. Bylaska, W. A. de Jong, N. Govind, K. Kowalski,
       T. P. Straatsma, M. Valiev, H. J. J. van Dam, D. Wang, T. L. Windus,
        J. Hammond, J. Autschbach, K. Bhaskaran-Nair, J. Brabec, K. Lopata,
       S. A. Fischer, S. Krishnamoorthy, W. Ma, M. Klemm, O. Villa, Y. Chen,
    V. Anisimov, F. Aquino, S. Hirata, M. T. Hackler, T. Risthaus, M. Malagoli,
       A. Marenich, A. Otero-de-la-Roza, J. Mullin, P. Nichols, R. Peverati,
     J. Pittner, Y. Zhao, P.-D. Fan, A. Fonari, M. Williamson, R. J. Harrison,
       J. R. Rehr, M. Dupuis, D. Silverstein, D. M. A. Smith, J. Nieplocha,
        V. Tipparaju, M. Krishnan, B. E. Van Kuiken, A. Vazquez-Mayagoitia,
        L. Jensen, M. Swart, Q. Wu, T. Van Voorhis, A. A. Auer, M. Nooijen,
      L. D. Crosby, E. Brown, G. Cisneros, G. I. Fann, H. Fruchtl, J. Garza,
        K. Hirao, R. A. Kendall, J. A. Nichols, K. Tsemekhman, K. Wolinski,
     J. Anchell, D. E. Bernholdt, P. Borowski, T. Clark, D. Clerc, H. Dachsel,
   M. J. O. Deegan, K. Dyall, D. Elwood, E. Glendening, M. Gutowski, A. C. Hess,
         J. Jaffe, B. G. Johnson, J. Ju, R. Kobayashi, R. Kutteh, Z. Lin,
   R. Littlefield, X. Long, B. Meng, T. Nakajima, S. Niu, L. Pollack, M. Rosing,
   K. Glaesemann, G. Sandrone, M. Stave, H. Taylor, G. Thomas, J. H. van Lenthe,
                               A. T. Wong, Z. Zhang.

 Total times  cpu:        0.0s     wall:        0.0s
