 argument  1 = helium.nw



============================== echo of input deck ==============================
echo
start helium

permanent_dir ./perm
scratch_dir ./scratch

charge 1
geometry units angstroms noautosym
He 0 0 0
H 0.9295 0 0
end

basis
 * library 6-31G
end

scf
print overlap kinetic potential ao2eints debug
end
task scf
================================================================================


                                         
                                         


              Northwest Computational Chemistry Package (NWChem) 6.6
              ------------------------------------------------------


                    Environmental Molecular Sciences Laboratory
                       Pacific Northwest National Laboratory
                                Richland, WA 99352

                              Copyright (c) 1994-2015
                       Pacific Northwest National Laboratory
                            Battelle Memorial Institute

             NWChem is an open-source computational chemistry package
                        distributed under the terms of the
                      Educational Community License (ECL) 2.0
             A copy of the license is included with this distribution
                              in the LICENSE.TXT file

                                  ACKNOWLEDGMENT
                                  --------------

            This software and its documentation were developed at the
            EMSL at Pacific Northwest National Laboratory, a multiprogram
            national laboratory, operated for the U.S. Department of Energy
            by Battelle under Contract Number DE-AC05-76RL01830. Support
            for this work was provided by the Department of Energy Office
            of Biological and Environmental Research, Office of Basic
            Energy Sciences, and the Office of Advanced Scientific Computing.


           Job information
           ---------------

    hostname        = ubuntu
    program         = nwchem
    date            = Mon Sep 25 14:01:33 2017

    compiled        = Mon_Feb_15_08:24:17_2016
    source          = /build/nwchem-MF0R1k/nwchem-6.6+r27746
    nwchem branch   = 6.6
    nwchem revision = 27746
    ga revision     = 10594
    input           = helium.nw
    prefix          = helium.
    data base       = ./perm/helium.db
    status          = startup
    nproc           =        1
    time left       =     -1s



           Memory information
           ------------------

    heap     =   13107200 doubles =    100.0 Mbytes
    stack    =   13107197 doubles =    100.0 Mbytes
    global   =   26214400 doubles =    200.0 Mbytes (distinct from heap & stack)
    total    =   52428797 doubles =    400.0 Mbytes
    verify   = yes
    hardfail = no 


           Directory information
           ---------------------

  0 permanent = ./perm
  0 scratch   = ./scratch




                                NWChem Input Module
                                -------------------



 Scaling coordinates for geometry "geometry" by  1.889725989
 (inverse scale =  0.529177249)


          ------
          auto-z
          ------


                             Geometry "geometry" -> ""
                             -------------------------

 Output coordinates in angstroms (scale by  1.889725989 to convert to a.u.)

  No.       Tag          Charge          X              Y              Z
 ---- ---------------- ---------- -------------- -------------- --------------
    1 He                   2.0000    -0.30983333     0.00000000     0.00000000
    2 H                    1.0000     0.61966667     0.00000000     0.00000000

      Atomic Mass 
      ----------- 

      He                 4.002600
      H                  1.007825


 Effective nuclear repulsion energy (a.u.)       1.1386277547

            Nuclear Dipole moment (a.u.) 
            ----------------------------
        X                 Y               Z
 ---------------- ---------------- ----------------
     0.0000000000     0.0000000000     0.0000000000



                                Z-matrix (autoz)
                                -------- 

 Units are Angstrom for bonds and degrees for angles

      Type          Name      I     J     K     L     M      Value
      ----------- --------  ----- ----- ----- ----- ----- ----------
    1 Stretch                  1     2                       0.92950


            XYZ format geometry
            -------------------
     2
 geometry
 He                   -0.30983333     0.00000000     0.00000000
 H                     0.61966667     0.00000000     0.00000000



 Summary of "ao basis" -> "" (cartesian)
 ------------------------------------------------------------------------------
       Tag                 Description            Shells   Functions and Types
 ---------------- ------------------------------  ------  ---------------------
 *                           6-31G                    on all atoms 


                      Basis "ao basis" -> "ao basis" (cartesian)
                      -----
  He (Helium)
  -----------
            Exponent  Coefficients 
       -------------- ---------------------------------------------------------
  1 S  3.84216340E+01  0.023766
  1 S  5.77803000E+00  0.154679
  1 S  1.24177400E+00  0.469630

  2 S  2.97964000E-01  1.000000

  H (Hydrogen)
  ------------
            Exponent  Coefficients 
       -------------- ---------------------------------------------------------
  1 S  1.87311370E+01  0.033495
  1 S  2.82539370E+00  0.234727
  1 S  6.40121700E-01  0.813757

  2 S  1.61277800E-01  1.000000



 Summary of "ao basis" -> "ao basis" (cartesian)
 ------------------------------------------------------------------------------
       Tag                 Description            Shells   Functions and Types
 ---------------- ------------------------------  ------  ---------------------
 He                          6-31G                   2        2   2s
 H                           6-31G                   2        2   2s



 Setting fock-build task_bf   :      -1
                    maxquartet:   10000
                    maxeri    :  129600
                    maxscr    :       0
                    intacc    : 0.0D+00
                    denscreen : T
                    dentol    : 1.0D-06

                                 NWChem SCF Module
                                 -----------------



  ao basis        = "ao basis"
  functions       =     4
  atoms           =     2
  closed shells   =     1
  open shells     =     0
  charge          =   1.00
  wavefunction    = RHF 
  input vectors   = atomic
  output vectors  = ./perm/helium.movecs
  use symmetry    = F
  symmetry adapt  = F


 Summary of "ao basis" -> "ao basis" (cartesian)
 ------------------------------------------------------------------------------
       Tag                 Description            Shells   Functions and Types
 ---------------- ------------------------------  ------  ---------------------
 He                          6-31G                   2        2   2s
 H                           6-31G                   2        2   2s




                         Geometry "geometry" -> "geometry"
                         ---------------------------------

 Output coordinates in angstroms (scale by  1.889725989 to convert to a.u.)

  No.       Tag          Charge          X              Y              Z
 ---- ---------------- ---------- -------------- -------------- --------------
    1 He                   2.0000    -0.30983333     0.00000000     0.00000000
    2 H                    1.0000     0.61966667     0.00000000     0.00000000

      Atomic Mass 
      ----------- 

      He                 4.002600
      H                  1.007825


 Effective nuclear repulsion energy (a.u.)       1.1386277547

            Nuclear Dipole moment (a.u.) 
            ----------------------------
        X                 Y               Z
 ---------------- ---------------- ----------------
     0.0000000000     0.0000000000     0.0000000000



                                Z-matrix (autoz)
                                -------- 

 Units are Angstrom for bonds and degrees for angles

      Type          Name      I     J     K     L     M      Value
      ----------- --------  ----- ----- ----- ----- ----- ----------
    1 Stretch                  1     2                       0.92950


      Symmetry information
      --------------------

 Group name             C1        
 Group number              1
 Group order               1
 No. of unique centers     2



                  Character table for group C1      

                  1e     
        a          1.000

      Symmetry unique atoms

     1    2

      Mapping of centers


      Group operations



                      Basis "ao basis" -> "ao basis" (cartesian)
                      -----
  He (Helium)
  -----------
            Exponent  Coefficients 
       -------------- ---------------------------------------------------------
  1 S  3.84216340E+01  0.023766
  1 S  5.77803000E+00  0.154679
  1 S  1.24177400E+00  0.469630

  2 S  2.97964000E-01  1.000000

  H (Hydrogen)
  ------------
            Exponent  Coefficients 
       -------------- ---------------------------------------------------------
  1 S  1.87311370E+01  0.033495
  1 S  2.82539370E+00  0.234727
  1 S  6.40121700E-01  0.813757

  2 S  1.61277800E-01  1.000000



    Basis function labels
    ---------------------
       No.  Atm El Type
       ---  --- -- ----
        1    1 He s          
        2    1 He s          
        3    2 H  s          
        4    2 H  s          
 <<< GBS_MAP_PRINT >>>
  total number of atoms           :                    2
  total number of contractions    :                    4
  total number of primitives      :                    8
  total number of coefficients    :                    8
  total number of basis functions :                    4
  
 ================================================================================
  center -> unique center map          <ibs_ce2uce>
         -> contraction range map      <ibs_ce2cnr>
 ================================================================================
 center:   1  maps to unique center:  1
              has   2  contractions   <first:   1>  <last:   2>

 center:   2  maps to unique center:  2
              has   2  contractions   <first:   3>  <last:   4>

  
 ================================================================================
  contraction -> center map                                     <ibs_cn2ce>
              -> unique contraction in basis set                <ibs_cn2ucn>
              -> basis function range                           <ibs_cn2bfr>
 ================================================================================
 contraction   1  is on center:  1
                  is represented by unique contraction:  1
                  has    1 basis functions <first:    1>  <last:    1>

 contraction   2  is on center:  1
                  is represented by unique contraction:  2
                  has    1 basis functions <first:    2>  <last:    2>

 contraction   3  is on center:  2
                  is represented by unique contraction:  3
                  has    1 basis functions <first:    3>  <last:    3>

 contraction   4  is on center:  2
                  is represented by unique contraction:  4
                  has    1 basis functions <first:    4>  <last:    4>


 nwchem basis set
 ics=  1 ib=  0 nat=  1 shz=  1 gc=  0 ie=  3 lcf=  1 fcf=  0 type= 1
 ics=  2 ib=  3 nat=  1 shz=  1 gc=  0 ie=  4 lcf=  2 fcf=  1 type= 1
 ics=  3 ib=  4 nat=  2 shz=  1 gc=  0 ie=  7 lcf=  3 fcf=  2 type= 1
 ics=  4 ib=  7 nat=  2 shz=  1 gc=  0 ie=  8 lcf=  4 fcf=  3 type= 1
 texas basis set
 ics=  1 ib=  4 nat=  2 shz=  1 gc=  0 ie=  7 lcf=  1 fcf=  0 type= 1
 ics=  2 ib=  0 nat=  1 shz=  1 gc=  0 ie=  3 lcf=  2 fcf=  1 type= 1
 ics=  3 ib=  7 nat=  2 shz=  1 gc=  0 ie=  8 lcf=  3 fcf=  2 type= 1
 ics=  4 ib=  3 nat=  1 shz=  1 gc=  0 ie=  4 lcf=  4 fcf=  3 type= 1
 translation shell-nwchem -> shell-texas
                    1                    2
                    2                    4
                    3                    1
                    4                    3
 ====================================
 Begin kinetic 1-e integrals
 ====================================
1eke          1   He s     1   He s           2.92565486
1eke          2   He s     1   He s           0.46722685
1eke          3   H  s     1   He s          -0.00569607
1eke          4   H  s     1   He s           0.08857896
1eke          1   He s     2   He s           0.46722685
1eke          2   He s     2   He s           0.44694600
1eke          3   H  s     2   He s           0.15572608
1eke          4   H  s     2   He s           0.16639408
1eke          1   He s     3   H  s          -0.00569607
1eke          2   He s     3   H  s           0.15572608
1eke          3   H  s     3   H  s           1.39567828
1eke          4   H  s     3   H  s           0.25973508
1eke          1   He s     4   H  s           0.08857896
1eke          2   He s     4   H  s           0.16639408
1eke          3   H  s     4   H  s           0.25973508
1eke          4   H  s     4   H  s           0.24191670
 ====================================
 End kinetic 1-e integrals
 ====================================
 ====================================
 Begin potential 1-e integrals
 ====================================
1epe          1   He s     1   He s          -5.37456256
1epe          2   He s     1   He s          -2.37401404
1epe          3   H  s     1   He s          -0.69241620
1epe          4   H  s     1   He s          -1.04561844
1epe          1   He s     2   He s          -2.37401404
1epe          2   He s     2   He s          -2.28004578
1epe          3   H  s     2   He s          -1.13175209
1epe          4   H  s     2   He s          -1.40565073
1epe          1   He s     3   H  s          -0.69241620
1epe          2   He s     3   H  s          -1.13175209
1epe          3   H  s     3   H  s          -2.78812972
1epe          4   H  s     3   H  s          -1.47445177
1epe          1   He s     4   H  s          -1.04561844
1epe          2   He s     4   H  s          -1.40565073
1epe          3   H  s     4   H  s          -1.47445177
1epe          4   H  s     4   H  s          -1.59923039
 ====================================
 End potential 1-e integrals
 ====================================
 ====================================
 Begin overlap 1-e integrals
 ====================================
1eov          1   He s     1   He s           1.00000000
1eov          2   He s     1   He s           0.63414774
1eov          3   H  s     1   He s           0.19089413
1eov          4   H  s     1   He s           0.29114449
1eov          1   He s     2   He s           0.63414774
1eov          2   He s     2   He s           1.00000000
1eov          3   H  s     2   He s           0.43814150
1eov          4   H  s     2   He s           0.67542490
1eov          1   He s     3   H  s           0.19089413
1eov          2   He s     3   H  s           0.43814150
1eov          3   H  s     3   H  s           1.00000000
1eov          4   H  s     3   H  s           0.65829205
1eov          1   He s     4   H  s           0.29114449
1eov          2   He s     4   H  s           0.67542490
1eov          3   H  s     4   H  s           0.65829205
1eov          4   H  s     4   H  s           1.00000000
 ====================================
 End overlap 1-e integrals
 ====================================
 ====================================
 Begin all 2-e integrals
 ====================================
 ao     1    1    1    1          1.54393568
 ao     1    1    1    2          0.78544719
 ao     1    1    1    3          0.21516822
 ao     1    1    1    4          0.34368858
 ao     1    1    2    1          0.78544719
 ao     1    1    2    2          0.80395186
 ao     1    1    2    3          0.30783235
 ao     1    1    2    4          0.46101624
 ao     1    1    3    1          0.21516822
 ao     1    1    3    2          0.30783235
 ao     1    1    3    3          0.56243487
 ao     1    1    3    4          0.35935922
 ao     1    1    4    1          0.34368858
 ao     1    1    4    2          0.46101624
 ao     1    1    4    3          0.35935922
 ao     1    1    4    4          0.46809827
 ao     1    2    1    1          0.78544719
 ao     1    2    1    2          0.42702546
 ao     1    2    1    3          0.11978095
 ao     1    2    1    4          0.18896662
 ao     1    2    2    1          0.42702546
 ao     1    2    2    2          0.47618957
 ao     1    2    2    3          0.18653952
 ao     1    2    2    4          0.27806799
 ao     1    2    3    1          0.11978095
 ao     1    2    3    2          0.18653952
 ao     1    2    3    3          0.35179663
 ao     1    2    3    4          0.22323419
 ao     1    2    4    1          0.18896662
 ao     1    2    4    2          0.27806799
 ao     1    2    4    3          0.22323419
 ao     1    2    4    4          0.29033110
 ao     1    3    1    1          0.21516822
 ao     1    3    1    2          0.11978095
 ao     1    3    1    3          0.04106972
 ao     1    3    1    4          0.05620239
 ao     1    3    2    1          0.11978095
 ao     1    3    2    2          0.13847099
 ao     1    3    2    3          0.07044333
 ao     1    3    2    4          0.08881474
 ao     1    3    3    1          0.04106972
 ao     1    3    3    2          0.07044333
 ao     1    3    3    3          0.14658113
 ao     1    3    3    4          0.08716024
 ao     1    3    4    1          0.05620239
 ao     1    3    4    2          0.08881474
 ao     1    3    4    3          0.08716024
 ao     1    3    4    4          0.10085312
 ao     1    4    1    1          0.34368858
 ao     1    4    1    2          0.18896662
 ao     1    4    1    3          0.05620239
 ao     1    4    1    4          0.08514275
 ao     1    4    2    1          0.18896662
 ao     1    4    2    2          0.21453944
 ao     1    4    2    3          0.09071764
 ao     1    4    2    4          0.12910166
 ao     1    4    3    1          0.05620239
 ao     1    4    3    2          0.09071764
 ao     1    4    3    3          0.17587675
 ao     1    4    3    4          0.10988395
 ao     1    4    4    1          0.08514275
 ao     1    4    4    2          0.12910166
 ao     1    4    4    3          0.10988395
 ao     1    4    4    4          0.13864810
 ao     2    1    1    1          0.78544719
 ao     2    1    1    2          0.42702546
 ao     2    1    1    3          0.11978095
 ao     2    1    1    4          0.18896662
 ao     2    1    2    1          0.42702546
 ao     2    1    2    2          0.47618957
 ao     2    1    2    3          0.18653952
 ao     2    1    2    4          0.27806799
 ao     2    1    3    1          0.11978095
 ao     2    1    3    2          0.18653952
 ao     2    1    3    3          0.35179663
 ao     2    1    3    4          0.22323419
 ao     2    1    4    1          0.18896662
 ao     2    1    4    2          0.27806799
 ao     2    1    4    3          0.22323419
 ao     2    1    4    4          0.29033110
 ao     2    2    1    1          0.80395186
 ao     2    2    1    2          0.47618957
 ao     2    2    1    3          0.13847099
 ao     2    2    1    4          0.21453944
 ao     2    2    2    1          0.47618957
 ao     2    2    2    2          0.61593794
 ao     2    2    2    3          0.25264419
 ao     2    2    2    4          0.37574087
 ao     2    2    3    1          0.13847099
 ao     2    2    3    2          0.25264419
 ao     2    2    3    3          0.51241138
 ao     2    2    3    4          0.32272483
 ao     2    2    4    1          0.21453944
 ao     2    2    4    2          0.37574087
 ao     2    2    4    3          0.32272483
 ao     2    2    4    4          0.42368673
 ao     2    3    1    1          0.30783235
 ao     2    3    1    2          0.18653952
 ao     2    3    1    3          0.07044333
 ao     2    3    1    4          0.09071764
 ao     2    3    2    1          0.18653952
 ao     2    3    2    2          0.25264419
 ao     2    3    2    3          0.15559431
 ao     2    3    2    4          0.18006325
 ao     2    3    3    1          0.07044333
 ao     2    3    3    2          0.15559431
 ao     2    3    3    3          0.38122783
 ao     2    3    3    4          0.21768400
 ao     2    3    4    1          0.09071764
 ao     2    3    4    2          0.18006325
 ao     2    3    4    3          0.21768400
 ao     2    3    4    4          0.23965471
 ao     2    4    1    1          0.46101624
 ao     2    4    1    2          0.27806799
 ao     2    4    1    3          0.08881474
 ao     2    4    1    4          0.12910166
 ao     2    4    2    1          0.27806799
 ao     2    4    2    2          0.37574087
 ao     2    4    2    3          0.18006325
 ao     2    4    2    4          0.24666919
 ao     2    4    3    1          0.08881474
 ao     2    4    3    2          0.18006325
 ao     2    4    3    3          0.39545974
 ao     2    4    3    4          0.24370554
 ao     2    4    4    1          0.12910166
 ao     2    4    4    2          0.24666919
 ao     2    4    4    3          0.24370554
 ao     2    4    4    4          0.30643133
 ao     3    1    1    1          0.21516822
 ao     3    1    1    2          0.11978095
 ao     3    1    1    3          0.04106972
 ao     3    1    1    4          0.05620239
 ao     3    1    2    1          0.11978095
 ao     3    1    2    2          0.13847099
 ao     3    1    2    3          0.07044333
 ao     3    1    2    4          0.08881474
 ao     3    1    3    1          0.04106972
 ao     3    1    3    2          0.07044333
 ao     3    1    3    3          0.14658113
 ao     3    1    3    4          0.08716024
 ao     3    1    4    1          0.05620239
 ao     3    1    4    2          0.08881474
 ao     3    1    4    3          0.08716024
 ao     3    1    4    4          0.10085312
 ao     3    2    1    1          0.30783235
 ao     3    2    1    2          0.18653952
 ao     3    2    1    3          0.07044333
 ao     3    2    1    4          0.09071764
 ao     3    2    2    1          0.18653952
 ao     3    2    2    2          0.25264419
 ao     3    2    2    3          0.15559431
 ao     3    2    2    4          0.18006325
 ao     3    2    3    1          0.07044333
 ao     3    2    3    2          0.15559431
 ao     3    2    3    3          0.38122783
 ao     3    2    3    4          0.21768400
 ao     3    2    4    1          0.09071764
 ao     3    2    4    2          0.18006325
 ao     3    2    4    3          0.21768400
 ao     3    2    4    4          0.23965471
 ao     3    3    1    1          0.56243487
 ao     3    3    1    2          0.35179663
 ao     3    3    1    3          0.14658113
 ao     3    3    1    4          0.17587675
 ao     3    3    2    1          0.35179663
 ao     3    3    2    2          0.51241138
 ao     3    3    2    3          0.38122783
 ao     3    3    2    4          0.39545974
 ao     3    3    3    1          0.14658113
 ao     3    3    3    2          0.38122783
 ao     3    3    3    3          1.07656611
 ao     3    3    3    4          0.57847038
 ao     3    3    4    1          0.17587675
 ao     3    3    4    2          0.39545974
 ao     3    3    4    3          0.57847038
 ao     3    3    4    4          0.58739589
 ao     3    4    1    1          0.35935922
 ao     3    4    1    2          0.22323419
 ao     3    4    1    3          0.08716024
 ao     3    4    1    4          0.10988395
 ao     3    4    2    1          0.22323419
 ao     3    4    2    2          0.32272483
 ao     3    4    2    3          0.21768400
 ao     3    4    2    4          0.24370554
 ao     3    4    3    1          0.08716024
 ao     3    4    3    2          0.21768400
 ao     3    4    3    3          0.57847038
 ao     3    4    3    4          0.32942321
 ao     3    4    4    1          0.10988395
 ao     3    4    4    2          0.24370554
 ao     3    4    4    3          0.32942321
 ao     3    4    4    4          0.36130385
 ao     4    1    1    1          0.34368858
 ao     4    1    1    2          0.18896662
 ao     4    1    1    3          0.05620239
 ao     4    1    1    4          0.08514275
 ao     4    1    2    1          0.18896662
 ao     4    1    2    2          0.21453944
 ao     4    1    2    3          0.09071764
 ao     4    1    2    4          0.12910166
 ao     4    1    3    1          0.05620239
 ao     4    1    3    2          0.09071764
 ao     4    1    3    3          0.17587675
 ao     4    1    3    4          0.10988395
 ao     4    1    4    1          0.08514275
 ao     4    1    4    2          0.12910166
 ao     4    1    4    3          0.10988395
 ao     4    1    4    4          0.13864810
 ao     4    2    1    1          0.46101624
 ao     4    2    1    2          0.27806799
 ao     4    2    1    3          0.08881474
 ao     4    2    1    4          0.12910166
 ao     4    2    2    1          0.27806799
 ao     4    2    2    2          0.37574087
 ao     4    2    2    3          0.18006325
 ao     4    2    2    4          0.24666919
 ao     4    2    3    1          0.08881474
 ao     4    2    3    2          0.18006325
 ao     4    2    3    3          0.39545974
 ao     4    2    3    4          0.24370554
 ao     4    2    4    1          0.12910166
 ao     4    2    4    2          0.24666919
 ao     4    2    4    3          0.24370554
 ao     4    2    4    4          0.30643133
 ao     4    3    1    1          0.35935922
 ao     4    3    1    2          0.22323419
 ao     4    3    1    3          0.08716024
 ao     4    3    1    4          0.10988395
 ao     4    3    2    1          0.22323419
 ao     4    3    2    2          0.32272483
 ao     4    3    2    3          0.21768400
 ao     4    3    2    4          0.24370554
 ao     4    3    3    1          0.08716024
 ao     4    3    3    2          0.21768400
 ao     4    3    3    3          0.57847038
 ao     4    3    3    4          0.32942321
 ao     4    3    4    1          0.10988395
 ao     4    3    4    2          0.24370554
 ao     4    3    4    3          0.32942321
 ao     4    3    4    4          0.36130385
 ao     4    4    1    1          0.46809827
 ao     4    4    1    2          0.29033110
 ao     4    4    1    3          0.10085312
 ao     4    4    1    4          0.13864810
 ao     4    4    2    1          0.29033110
 ao     4    4    2    2          0.42368673
 ao     4    4    2    3          0.23965471
 ao     4    4    2    4          0.30643133
 ao     4    4    3    1          0.10085312
 ao     4    4    3    2          0.23965471
 ao     4    4    3    3          0.58739589
 ao     4    4    3    4          0.36130385
 ao     4    4    4    1          0.13864810
 ao     4    4    4    2          0.30643133
 ao     4    4    4    3          0.36130385
 ao     4    4    4    4          0.45315039
 ====================================
 End all 2-e integrals
 ====================================

 Schwarz integral screening summary 
 ---------------------------------- 

        No. of atom pairs =       3
       No. of shell pairs =      10

 Atomic screening 

   value      no.     value      no.     value      no.     value      no.   
  -------- ------    -------- ------    -------- ------    -------- ------   
  0.00D+00      0    1.00D-13      0    1.00D-12      0    1.00D-11      0
  1.00D-10      0    1.00D-09      0    1.00D-08      0    1.00D-07      0
  1.00D-06      0    1.00D-05      0    1.00D-04      0    1.00D-03      0
  1.00D-02      0    1.00D-01      0    1.00D+00      3    1.00D+01      0


 Shell screening 

   value      no.     value      no.     value      no.     value      no.   
  -------- ------    -------- ------    -------- ------    -------- ------   
  0.00D+00      0    1.00D-13      0    1.00D-12      0    1.00D-11      0
  1.00D-10      0    1.00D-09      0    1.00D-08      0    1.00D-07      0
  1.00D-06      0    1.00D-05      0    1.00D-04      0    1.00D-03      0
  1.00D-02      0    1.00D-01      2    1.00D+00      8    1.00D+01      0



 global array: Temp Over[1:4,1:4],  handle: -996 

            1           2           3           4  
       ----------- ----------- ----------- -----------
   1       1.00000     0.63415     0.19089     0.29114
   2       0.63415     1.00000     0.43814     0.67542
   3       0.19089     0.43814     1.00000     0.65829
   4       0.29114     0.67542     0.65829     1.00000

 Forming initial guess at       0.0s


      Superposition of Atomic Density Guess
      -------------------------------------


      charge =       2.0 He (Helium)

      symmetry species            s     p     d     f
      number of basis functions = 4
      number of cont. functions = 2
      number of closed shells   = 1
      number of open shells     = 0
      open shell occupation     = 0
  isym                     1
        nbas                      4
        ncsh                      1
        nosh                      0
        nccup                     0
        n1                       10
        nbc                       2
        function                     1
                1           38.421634            0.040140
                2            5.778030            0.261246
                3            1.241774            0.793185
        function                     2
                1            0.297964            1.000000
   0.00000000D+00  0.00000000D+00  0.00000000D+00  0.00000000D+00
   0.00000000D+00  0.00000000D+00  0.00000000D+00  0.00000000D+00
   0.00000000D+00  0.00000000D+00  0.00000000D+00  0.00000000D+00
   0.00000000D+00  0.00000000D+00  0.00000000D+00  0.00000000D+00
   0.00000000D+00  0.00000000D+00  0.00000000D+00  0.00000000D+00
   0.00000000D+00  0.00000000D+00  0.00000000D+00  0.00000000D+00



        final scf results at iteration  11
        total hf energy    kinetic energy    virial theorem
      -0.2855160395E+01   0.2855318280E+01  -0.1999944705E+01

        orbital energies and eigenvectors
 

        -0.91413
 
        0.592081
        0.513586

      charge =       1.0 H (Hydrogen)

      symmetry species            s     p     d     f
      number of basis functions = 4
      number of cont. functions = 2
      number of closed shells   = 0
      number of open shells     = 1
      open shell occupation     = 1
  isym                     1
        nbas                      4
        ncsh                      0
        nosh                      1
        nccup                     1
        n1                       10
        nbc                       2
        function                     1
                1           18.731137            0.033495
                2            2.825394            0.234727
                3            0.640122            0.813757
        function                     2
                1            0.161278            1.000000
  -0.50000000D+00  0.00000000D+00  0.00000000D+00  0.00000000D+00
   0.00000000D+00  0.00000000D+00  0.00000000D+00  0.00000000D+00
   0.00000000D+00  0.00000000D+00  0.00000000D+00  0.00000000D+00
   0.00000000D+00  0.00000000D+00  0.00000000D+00  0.00000000D+00
   0.00000000D+00  0.00000000D+00  0.00000000D+00  0.00000000D+00
   0.00000000D+00  0.00000000D+00  0.00000000D+00  0.00000000D+00



        final scf results at iteration  13
        total hf energy    kinetic energy    virial theorem
      -0.4982325391E+00   0.5098707778E+00  -0.1977174140E+01

        orbital energies and eigenvectors
 

        -0.49823
 
       -0.427431
       -0.665449
 Sum of atomic energies:          -3.35339293

 global array: Guess density[1:4,1:4],  handle: -996 

            1           2           3           4  
       ----------- ----------- ----------- -----------
   1       0.70112     0.60817     0.00000     0.00000
   2       0.60817     0.52754     0.00000     0.00000
   3       0.00000     0.00000     0.18270     0.28443
   4       0.00000     0.00000     0.28443     0.44282

 global array: Temp HCore[1:4,1:4],  handle: -994 

            1           2           3           4  
       ----------- ----------- ----------- -----------
   1       2.92565     0.46723    -0.00570     0.08858
   2       0.46723     0.44695     0.15573     0.16639
   3      -0.00570     0.15573     1.39568     0.25974
   4       0.08858     0.16639     0.25974     0.24192

 global array: Temp HCore[1:4,1:4],  handle: -994 

            1           2           3           4  
       ----------- ----------- ----------- -----------
   1       1.00000     0.63415     0.19089     0.29114
   2       0.63415     1.00000     0.43814     0.67542
   3       0.19089     0.43814     1.00000     0.65829
   4       0.29114     0.67542     0.65829     1.00000


                              ----------------------------
                                 initial guess density   
                              ----------------------------



 Renormalizing density from       3.00 to      2
 *** fock_2e: xc_active  F
  oread, owrite, incmax, incmin, incomplete  F F                    0                    0                    0
  Building direct    9.9999999999999995E-008
  tol2e= 1.0D-07 denmax= 4.7D-01 dentol= 2.1D-07 integ_acc= 1.0D-11 odenscr=T oread=F owrite=F
  Before combining, #pair blocks =                     9
  ij type                     1                    1                    1
  ij type                     2                    2                    2
  ij type                     3                    3                    3
  ij type                     4                    4                    4
  ij type                     5                    5                    5
  ij type                     6                    6                    6
  ij type                     7                    7                    7
  ij type                     8                    8                    8
  ij type                     9                    9                   10
  After combining, #pair blocks =                     1
  ij type                     1                    1                   10
     ij    i  j   it jt   ip jp   ig jg  iu  ju
     --    -  -   -- --   -- --   -- --  --  --
      1    2  2    0  0    1  1    1  1    1  1   1.23D-02     1
      2    4  2    0  0    1  1    1  1    2  1   1.23D-02     1
      3    4  4    0  0    1  1    1  1    2  2   1.23D-02     1
      4    2  1    0  0    1  3    1  1    1  1   1.11D-01    11
      5    4  1    0  0    1  3    1  1    2  1   1.11D-01    11
      6    3  2    0  0    3  1    1  1    2  1   1.11D-01    11
      7    4  3    0  0    1  3    1  1    2  2   1.11D-01    11
      8    1  1    0  0    3  3    1  1    1  1   1.00D+00   100
      9    3  3    0  0    3  3    1  1    2  2   1.00D+00   100
     10    3  1    0  0    3  3    1  1    2  1   1.00D+00   100
  Before combining, #pair blocks =                     9
  ij type                     1                    1                    1
  ij type                     2                    2                    2
  ij type                     3                    3                    3
  ij type                     4                    4                    4
  ij type                     5                    5                    5
  ij type                     6                    6                    6
  ij type                     7                    7                    7
  ij type                     8                    8                    8
  ij type                     9                    9                   10
  After combining, #pair blocks =                     1
  ij type                     1                    1                   10
     ij    i  j   it jt   ip jp   ig jg  iu  ju
     --    -  -   -- --   -- --   -- --  --  --
      1    2  2    0  0    1  1    1  1    1  1   1.23D-02     1
      2    4  2    0  0    1  1    1  1    2  1   1.23D-02     1
      3    4  4    0  0    1  1    1  1    2  2   1.23D-02     1
      4    2  1    0  0    1  3    1  1    1  1   1.11D-01    11
      5    4  1    0  0    1  3    1  1    2  1   1.11D-01    11
      6    3  2    0  0    3  1    1  1    2  1   1.11D-01    11
      7    4  3    0  0    1  3    1  1    2  2   1.11D-01    11
      8    1  1    0  0    3  3    1  1    1  1   1.00D+00   100
      9    3  3    0  0    3  3    1  1    2  2   1.00D+00   100
     10    3  1    0  0    3  3    1  1    2  1   1.00D+00   100
  Before combining, #pair blocks =                     9
  ij type                     1                    1                    1
  ij type                     2                    2                    2
  ij type                     3                    3                    3
  ij type                     4                    4                    4
  ij type                     5                    5                    5
  ij type                     6                    6                    6
  ij type                     7                    7                    7
  ij type                     8                    8                    8
  ij type                     9                    9                   10
  After combining, #pair blocks =                     1
  ij type                     1                    1                   10
     ij    i  j   it jt   ip jp   ig jg  iu  ju
     --    -  -   -- --   -- --   -- --  --  --
      1    2  2    0  0    1  1    1  1    1  1   1.23D-02     1
      2    4  2    0  0    1  1    1  1    2  1   1.23D-02     1
      3    4  4    0  0    1  1    1  1    2  2   1.23D-02     1
      4    2  1    0  0    1  3    1  1    1  1   1.11D-01    11
      5    4  1    0  0    1  3    1  1    2  1   1.11D-01    11
      6    3  2    0  0    3  1    1  1    2  1   1.11D-01    11
      7    4  3    0  0    1  3    1  1    2  2   1.11D-01    11
      8    1  1    0  0    3  3    1  1    1  1   1.00D+00   100
      9    3  3    0  0    3  3    1  1    2  2   1.00D+00   100
     10    3  1    0  0    3  3    1  1    2  1   1.00D+00   100
  Before combining, #pair blocks =                     9
  ij type                     1                    1                    1
  ij type                     2                    2                    2
  ij type                     3                    3                    3
  ij type                     4                    4                    4
  ij type                     5                    5                    5
  ij type                     6                    6                    6
  ij type                     7                    7                    7
  ij type                     8                    8                    8
  ij type                     9                    9                   10
  After combining, #pair blocks =                     1
  ij type                     1                    1                   10
     ij    i  j   it jt   ip jp   ig jg  iu  ju
     --    -  -   -- --   -- --   -- --  --  --
      1    2  2    0  0    1  1    1  1    1  1   1.23D-02     1
      2    4  2    0  0    1  1    1  1    2  1   1.23D-02     1
      3    4  4    0  0    1  1    1  1    2  2   1.23D-02     1
      4    2  1    0  0    1  3    1  1    1  1   1.11D-01    11
      5    4  1    0  0    1  3    1  1    2  1   1.11D-01    11
      6    3  2    0  0    3  1    1  1    2  1   1.11D-01    11
      7    4  3    0  0    1  3    1  1    2  2   1.11D-01    11
      8    1  1    0  0    3  3    1  1    1  1   1.00D+00   100
      9    3  3    0  0    3  3    1  1    2  2   1.00D+00   100
     10    3  1    0  0    3  3    1  1    2  1   1.00D+00   100
  Before combining, #pair blocks =                     9
  ij type                     1                    1                    1
  ij type                     2                    2                    2
  ij type                     3                    3                    3
  ij type                     4                    4                    4
  ij type                     5                    5                    5
  ij type                     6                    6                    6
  ij type                     7                    7                    7
  ij type                     8                    8                    8
  ij type                     9                    9                   10
  After combining, #pair blocks =                     1
  ij type                     1                    1                   10
     ij    i  j   it jt   ip jp   ig jg  iu  ju
     --    -  -   -- --   -- --   -- --  --  --
      1    2  2    0  0    1  1    1  1    1  1   1.23D-02     1
      2    4  2    0  0    1  1    1  1    2  1   1.23D-02     1
      3    4  4    0  0    1  1    1  1    2  2   1.23D-02     1
      4    2  1    0  0    1  3    1  1    1  1   1.11D-01    11
      5    4  1    0  0    1  3    1  1    2  1   1.11D-01    11
      6    3  2    0  0    3  1    1  1    2  1   1.11D-01    11
      7    4  3    0  0    1  3    1  1    2  2   1.11D-01    11
      8    1  1    0  0    3  3    1  1    1  1   1.00D+00   100
      9    3  3    0  0    3  3    1  1    2  2   1.00D+00   100
     10    3  1    0  0    3  3    1  1    2  1   1.00D+00   100
  max_p                    10  ntype                     1  chunk                     1
 raw= 5.5D+01 schwarz= 5.5D+01 sym= 5.5D+01 dens= 5.5D+01

 Integral screening statistics
 -----------------------------

       Direct Fock builds =          1
   Atom quartets computed =          0 (  0.00%)
  Shell quartets rejected =          0 (  0.00%)
  Shell quartets computed =          0 (  0.00%)


      Non-variational initial energy
      ------------------------------

 Total energy =      -2.332338
 1-e energy   =      -4.366514
 2-e energy   =       0.895549
 HOMO         =      -1.567936
 LUMO         =      -0.424566


 Setting fock-build task_bf   :      -1
                    maxquartet:   10000
                    maxeri    :  129600
                    maxscr    :       0
                    intacc    : 0.0D+00
                    denscreen : T
                    dentol    : 1.0D-06


                                Initial MO vectors
                                ------------------


 global array: scf_init: MOs[1:4,1:4],  handle: -1000 

            1           2           3           4  
       ----------- ----------- ----------- -----------
   1       0.62133    -0.27153     0.07980    -1.14428
   2       0.40434    -0.51934     0.07764     1.59669
   3       0.13710     0.44147     1.24366     0.06862
   4       0.02859     0.88007    -1.22668    -0.67840

 Wrote molecular orbitals to ./perm/helium.movecs


                      ROHF Initial Molecular Orbital Analysis
                      ---------------------------------------

 Vector    1  Occ=2.000000D+00  E=-1.567936D+00
              MO Center= -2.4D-01,  0.0D+00,  0.0D+00, r^2= 3.4D-01
   Bfn.  Coefficient  Atom+Function         Bfn.  Coefficient  Atom+Function  
  ----- ------------  ---------------      ----- ------------  ---------------
     1      0.621326  1 He s                  2      0.404342  1 He s          

 Vector    2  Occ=0.000000D+00  E=-4.245655D-01
              MO Center=  7.1D-01,  0.0D+00,  0.0D+00, r^2= 9.4D-01
   Bfn.  Coefficient  Atom+Function         Bfn.  Coefficient  Atom+Function  
  ----- ------------  ---------------      ----- ------------  ---------------
     4      0.880069  2 H  s                  2     -0.519344  1 He s          
     3      0.441470  2 H  s                  1     -0.271528  1 He s          

 Vector    3  Occ=0.000000D+00  E= 4.849543D-01
              MO Center=  6.8D-01,  0.0D+00,  0.0D+00, r^2= 1.3D+00
   Bfn.  Coefficient  Atom+Function         Bfn.  Coefficient  Atom+Function  
  ----- ------------  ---------------      ----- ------------  ---------------
     3      1.243665  2 H  s                  4     -1.226684  2 H  s          

 Vector    4  Occ=0.000000D+00  E= 8.885304D-01
              MO Center= -3.1D-01,  0.0D+00,  0.0D+00, r^2= 1.0D+00
   Bfn.  Coefficient  Atom+Function         Bfn.  Coefficient  Atom+Function  
  ----- ------------  ---------------      ----- ------------  ---------------
     2      1.596685  1 He s                  1     -1.144275  1 He s          
     4     -0.678397  2 H  s          


 Starting SCF solution at       0.0s

 ready to solve ...                    0


 ----------------------------------------------
         Quadratically convergent ROHF

 Convergence threshold     :          1.000E-04
 Maximum no. of iterations :           30
 Final Fock-matrix accuracy:          1.000E-07
 ----------------------------------------------


 global array: rohf_s_e: MOs[1:4,1:4],  handle: -992 

            1           2           3           4  
       ----------- ----------- ----------- -----------
   1       0.62133    -0.27153     0.07980    -1.14428
   2       0.40434    -0.51934     0.07764     1.59669
   3       0.13710     0.44147     1.24366     0.06862
   4       0.02859     0.88007    -1.22668    -0.67840

 global array: rohf: cdens[1:4,1:4],  handle: -991 

            1           2           3           4  
       ----------- ----------- ----------- -----------
   1       0.77209     0.50246     0.17037     0.03552
   2       0.50246     0.32699     0.11087     0.02312
   3       0.17037     0.11087     0.03759     0.00784
   4       0.03552     0.02312     0.00784     0.00163

 global array: rohf: hcore[1:4,1:4],  handle: -989 

            1           2           3           4  
       ----------- ----------- ----------- -----------
   1      -2.44891    -1.90679    -0.69811    -0.95704
   2      -1.90679    -1.83310    -0.97603    -1.23926
   3      -0.69811    -0.97603    -1.39245    -1.21472
   4      -0.95704    -1.23926    -1.21472    -1.35731
 *** fock_2e: xc_active  F
  int2e_file: opening ./scratch/helium.aoints.0
   0: nuse=   1(   0.9) avail=    54963Mb (out of    54963Mb) on ./scratch
  int2e_file: rewinding ./scratch/helium.aoints.0
  oread, owrite, incmax, incmin, incomplete  F T                    0                    0                    0
  Building direct    1.0000000000000000E-008
  int2e_file: set range                     1                    4                    1                    4                    1                    4                    1                    4                    6
  tol2e= 1.0D-08 denmax= 7.7D-01 dentol= 1.3D-08 integ_acc= 1.0D-11 odenscr=T oread=F owrite=T
  Before combining, #pair blocks =                     9
  ij type                     1                    1                    1
  ij type                     2                    2                    2
  ij type                     3                    3                    3
  ij type                     4                    4                    4
  ij type                     5                    5                    5
  ij type                     6                    6                    6
  ij type                     7                    7                    7
  ij type                     8                    8                    8
  ij type                     9                    9                   10
  After combining, #pair blocks =                     1
  ij type                     1                    1                   10
     ij    i  j   it jt   ip jp   ig jg  iu  ju
     --    -  -   -- --   -- --   -- --  --  --
      1    2  2    0  0    1  1    1  1    1  1   1.23D-02     1
      2    4  2    0  0    1  1    1  1    2  1   1.23D-02     1
      3    4  4    0  0    1  1    1  1    2  2   1.23D-02     1
      4    2  1    0  0    1  3    1  1    1  1   1.11D-01    11
      5    4  1    0  0    1  3    1  1    2  1   1.11D-01    11
      6    3  2    0  0    3  1    1  1    2  1   1.11D-01    11
      7    4  3    0  0    1  3    1  1    2  2   1.11D-01    11
      8    1  1    0  0    3  3    1  1    1  1   1.00D+00   100
      9    3  3    0  0    3  3    1  1    2  2   1.00D+00   100
     10    3  1    0  0    3  3    1  1    2  1   1.00D+00   100
  Before combining, #pair blocks =                     9
  ij type                     1                    1                    1
  ij type                     2                    2                    2
  ij type                     3                    3                    3
  ij type                     4                    4                    4
  ij type                     5                    5                    5
  ij type                     6                    6                    6
  ij type                     7                    7                    7
  ij type                     8                    8                    8
  ij type                     9                    9                   10
  After combining, #pair blocks =                     1
  ij type                     1                    1                   10
     ij    i  j   it jt   ip jp   ig jg  iu  ju
     --    -  -   -- --   -- --   -- --  --  --
      1    2  2    0  0    1  1    1  1    1  1   1.23D-02     1
      2    4  2    0  0    1  1    1  1    2  1   1.23D-02     1
      3    4  4    0  0    1  1    1  1    2  2   1.23D-02     1
      4    2  1    0  0    1  3    1  1    1  1   1.11D-01    11
      5    4  1    0  0    1  3    1  1    2  1   1.11D-01    11
      6    3  2    0  0    3  1    1  1    2  1   1.11D-01    11
      7    4  3    0  0    1  3    1  1    2  2   1.11D-01    11
      8    1  1    0  0    3  3    1  1    1  1   1.00D+00   100
      9    3  3    0  0    3  3    1  1    2  2   1.00D+00   100
     10    3  1    0  0    3  3    1  1    2  1   1.00D+00   100
  Before combining, #pair blocks =                     9
  ij type                     1                    1                    1
  ij type                     2                    2                    2
  ij type                     3                    3                    3
  ij type                     4                    4                    4
  ij type                     5                    5                    5
  ij type                     6                    6                    6
  ij type                     7                    7                    7
  ij type                     8                    8                    8
  ij type                     9                    9                   10
  After combining, #pair blocks =                     1
  ij type                     1                    1                   10
     ij    i  j   it jt   ip jp   ig jg  iu  ju
     --    -  -   -- --   -- --   -- --  --  --
      1    2  2    0  0    1  1    1  1    1  1   1.23D-02     1
      2    4  2    0  0    1  1    1  1    2  1   1.23D-02     1
      3    4  4    0  0    1  1    1  1    2  2   1.23D-02     1
      4    2  1    0  0    1  3    1  1    1  1   1.11D-01    11
      5    4  1    0  0    1  3    1  1    2  1   1.11D-01    11
      6    3  2    0  0    3  1    1  1    2  1   1.11D-01    11
      7    4  3    0  0    1  3    1  1    2  2   1.11D-01    11
      8    1  1    0  0    3  3    1  1    1  1   1.00D+00   100
      9    3  3    0  0    3  3    1  1    2  2   1.00D+00   100
     10    3  1    0  0    3  3    1  1    2  1   1.00D+00   100
  Before combining, #pair blocks =                     9
  ij type                     1                    1                    1
  ij type                     2                    2                    2
  ij type                     3                    3                    3
  ij type                     4                    4                    4
  ij type                     5                    5                    5
  ij type                     6                    6                    6
  ij type                     7                    7                    7
  ij type                     8                    8                    8
  ij type                     9                    9                   10
  After combining, #pair blocks =                     1
  ij type                     1                    1                   10
     ij    i  j   it jt   ip jp   ig jg  iu  ju
     --    -  -   -- --   -- --   -- --  --  --
      1    2  2    0  0    1  1    1  1    1  1   1.23D-02     1
      2    4  2    0  0    1  1    1  1    2  1   1.23D-02     1
      3    4  4    0  0    1  1    1  1    2  2   1.23D-02     1
      4    2  1    0  0    1  3    1  1    1  1   1.11D-01    11
      5    4  1    0  0    1  3    1  1    2  1   1.11D-01    11
      6    3  2    0  0    3  1    1  1    2  1   1.11D-01    11
      7    4  3    0  0    1  3    1  1    2  2   1.11D-01    11
      8    1  1    0  0    3  3    1  1    1  1   1.00D+00   100
      9    3  3    0  0    3  3    1  1    2  2   1.00D+00   100
     10    3  1    0  0    3  3    1  1    2  1   1.00D+00   100
  Before combining, #pair blocks =                     9
  ij type                     1                    1                    1
  ij type                     2                    2                    2
  ij type                     3                    3                    3
  ij type                     4                    4                    4
  ij type                     5                    5                    5
  ij type                     6                    6                    6
  ij type                     7                    7                    7
  ij type                     8                    8                    8
  ij type                     9                    9                   10
  After combining, #pair blocks =                     1
  ij type                     1                    1                   10
     ij    i  j   it jt   ip jp   ig jg  iu  ju
     --    -  -   -- --   -- --   -- --  --  --
      1    2  2    0  0    1  1    1  1    1  1   1.23D-02     1
      2    4  2    0  0    1  1    1  1    2  1   1.23D-02     1
      3    4  4    0  0    1  1    1  1    2  2   1.23D-02     1
      4    2  1    0  0    1  3    1  1    1  1   1.11D-01    11
      5    4  1    0  0    1  3    1  1    2  1   1.11D-01    11
      6    3  2    0  0    3  1    1  1    2  1   1.11D-01    11
      7    4  3    0  0    1  3    1  1    2  2   1.11D-01    11
      8    1  1    0  0    3  3    1  1    1  1   1.00D+00   100
      9    3  3    0  0    3  3    1  1    2  2   1.00D+00   100
     10    3  1    0  0    3  3    1  1    2  1   1.00D+00   100
  max_p                    10  ntype                     1  chunk                     1
  int2e_file: recorded position at                     1
  int2e_file: write file                     6                    6
  int2e_file: write file                    49                    6

 #quartets = 5.500D+01 #integrals = 5.500D+01 #direct =  0.0% #cached =100.0%

 raw= 5.5D+01 schwarz= 5.5D+01 sym= 5.5D+01 dens= 5.5D+01

 Integral screening statistics
 -----------------------------

       Direct Fock builds =          2
   Atom quartets computed =          0 (  0.00%)
  Shell quartets rejected =          0 (  0.00%)
  Shell quartets computed =          0 (  0.00%)


 Integral file          = ./scratch/helium.aoints.0
 Record size in doubles =  65536        No. of integs per rec  =  43688
 Max. records in memory =      2        Max. records in file   = 104429
 No. of bits per label  =      8        No. of bits per value  =     64

 int2e_file: wrote     61 integrals in record    1 of     1.
  Symmetrized combined AO fock matrices 

 global array: rohf: cfock[1:4,1:4],  handle: -990 

            1           2           3           4  
       ----------- ----------- ----------- -----------
   1      -1.11811    -1.35400    -0.63227    -0.78317
   2      -1.35400    -0.95932    -0.64019    -0.70525
   3      -0.63227    -0.64019    -0.39846    -0.65958
   4      -0.78317    -0.70525    -0.65958    -0.63080

 global array: rohf_init: FCV[1:4,1:4],  handle: -996 

            1           2           3           4  
       ----------- ----------- ----------- -----------
   1      -1.50481    -0.03349    -0.03377    -0.04133
   2      -0.03349    -0.33769     0.01451     0.06039
   3      -0.03377     0.01451     0.45586    -0.03279
   4      -0.04133     0.06039    -0.03279     1.07810
  e1o=  0.00000000D+00, e1c= -5.05953163D+00, e2o=  0.00000000D+00, e2c=  1.02495733D+00

 Wrote rohf: cfock to ./scratch/helium.cfock

 total energy =      -2.895946541802
 1-e energy   =      -5.059531630310
 2-e energy   =       1.024957333802
 nucl. energy =       1.138627754706


              iter       energy          gnorm     gmax       time
             ----- ------------------- --------- --------- --------
                 1       -2.8959465418  2.52D-01  1.65D-01      0.0

                              Intermediate MO vectors
                              -----------------------


 global array: scf_init: MOs[1:4,1:4],  handle: -1000 

            1           2           3           4  
       ----------- ----------- ----------- -----------
   1       0.62133    -0.27153     0.07980    -1.14428
   2       0.40434    -0.51934     0.07764     1.59669
   3       0.13710     0.44147     1.24366     0.06862
   4       0.02859     0.88007    -1.22668    -0.67840


                Eigenvalues
                -----------

              1      
    1   -1.5048
    2   -0.3406
    3    0.4545
    4    1.0823

            ----- linear solve (tol: 1.0E-02 prod-acc: 1.5E-08) -----

               iter nbas    rnorm     rnorm-scal   ratio     time
               ---- ---- ----------- ----------- --------- -------
 rohf_wrap.F: in g_x =    1              0.25205081
 rohf_wrap.F: out g_x =    1              0.03615296
                  1    1  7.4734E-17  2.9650E-16    0.0000     0.0

                              ----- Line search ------

        step       energy         lsg     num-lsg   num-lsh   lsrat    time
      ------- ---------------- --------- --------- --------- ------- --------
       0.0000      -2.89594654 -8.62D-03  0.00D+00  0.00D+00 0.0D+00      0.0

 global array: rohf_s_e: MOs[1:4,1:4],  handle: -992 

            1           2           3           4  
       ----------- ----------- ----------- -----------
   1       0.59697    -0.23985     0.00469    -1.16687
   2       0.41591    -0.59986     0.13879     1.56095
   3       0.17178     0.40908     1.25212     0.02078
   4       0.02116     0.93207    -1.23999    -0.57754

 global array: rohf: cdens[1:4,1:4],  handle: -991 

            1           2           3           4  
       ----------- ----------- ----------- -----------
   1       0.71274     0.49657     0.20510     0.02526
   2       0.49657     0.34597     0.14289     0.01760
   3       0.20510     0.14289     0.05902     0.00727
   4       0.02526     0.01760     0.00727     0.00090

 global array: rohf: hcore[1:4,1:4],  handle: -989 

            1           2           3           4  
       ----------- ----------- ----------- -----------
   1      -2.44891    -1.90679    -0.69811    -0.95704
   2      -1.90679    -1.83310    -0.97603    -1.23926
   3      -0.69811    -0.97603    -1.39245    -1.21472
   4      -0.95704    -1.23926    -1.21472    -1.35731
 *** fock_2e: xc_active  F
  int2e_file: rewinding ./scratch/helium.aoints.0
  oread, owrite, incmax, incmin, incomplete  T F                   -1                   -1                   -1
  Building from file    9.9999999999999995E-008
 fockfile: tols    9.9999999999999995E-008   9.9999999999999995E-007  0.71274178431704982        1.4030326578344236E-007
 int2e_file: read     61 integrals in record     1 of      1.
  int2e_file: get range                     1                    4                    1                    4                    1                    4                    1                    4                    6                   55
 int2e_file: EOF at record    2 of     1?
 int2e_file: EOF at record    2 of     1?
  Symmetrized combined AO fock matrices 

 global array: rohf: cfock[1:4,1:4],  handle: -990 

            1           2           3           4  
       ----------- ----------- ----------- -----------
   1      -1.13064    -1.36240    -0.64545    -0.79121
   2      -1.36240    -0.97489    -0.65386    -0.71654
   3      -0.64545    -0.65386    -0.40378    -0.66790
   4      -0.79121    -0.71654    -0.66790    -0.63671

 global array: rohf_init: FCV[1:4,1:4],  handle: -996 

            1           2           3           4  
       ----------- ----------- ----------- -----------
   1      -1.52356    -0.00456    -0.00659    -0.00020
   2      -0.00456    -0.33534     0.00214    -0.00086
   3      -0.00659     0.00214     0.46235     0.00419
   4      -0.00020    -0.00086     0.00419     1.06607
  e1o=  0.00000000D+00, e1c= -5.03168202D+00, e2o=  0.00000000D+00, e2c=  9.92277964D-01

 Wrote rohf: cfock to ./scratch/helium.cfock

 total energy =      -2.900776302444
 1-e energy   =      -5.031682020774
 2-e energy   =       0.992277963624
 nucl. energy =       1.138627754706

       1.0000      -2.90077630 -9.90D-04 -1.02D-03  7.63D-03 1.1D-01      0.0

              iter       energy          gnorm     gmax       time
             ----- ------------------- --------- --------- --------
                 2       -2.9007763024  3.21D-02  2.64D-02      0.0

                              Intermediate MO vectors
                              -----------------------


 global array: scf_init: MOs[1:4,1:4],  handle: -1000 

            1           2           3           4  
       ----------- ----------- ----------- -----------
   1       0.59697    -0.23985     0.00469    -1.16687
   2       0.41591    -0.59986     0.13879     1.56095
   3       0.17178     0.40908     1.25212     0.02078
   4       0.02116     0.93207    -1.23999    -0.57754


                Eigenvalues
                -----------

              1      
    1   -1.5236
    2   -0.3353
    3    0.4623
    4    1.0661

            ----- linear solve (tol: 3.2E-02 prod-acc: 5.9E-09) -----

               iter nbas    rnorm     rnorm-scal   ratio     time
               ---- ---- ----------- ----------- --------- -------
 rohf_wrap.F: in g_x =    1              0.03207075
 rohf_wrap.F: out g_x =    1              0.00506619
 *** fock_2e: xc_active  F
  int2e_file: rewinding ./scratch/helium.aoints.0
  oread, owrite, incmax, incmin, incomplete  T F                   -1                   -1                   -1
  Building from file    5.9382382453232306E-009
 fockfile: tols    5.9382382453232306E-009   9.9999999999999995E-007   1.6225938995179990E-003   9.9999999999999995E-007
 int2e_file: read     61 integrals in record     1 of      1.
  int2e_file: get range                     1                    4                    1                    4                    1                    4                    1                    4                    6                   55
 int2e_file: EOF at record    2 of     1?
 int2e_file: EOF at record    2 of     1?
                  1    1  2.7429E-03  8.5525E-02    0.0000     0.0
 rohf_wrap.F: in g_x =    1              0.00274286
 rohf_wrap.F: out g_x =    1              0.00027316
 *** fock_2e: xc_active  F
  int2e_file: rewinding ./scratch/helium.aoints.0
  oread, owrite, incmax, incmin, incomplete  T F                   -1                   -1                   -1
  Building from file    5.9382382453232306E-009
 fockfile: tols    5.9382382453232306E-009   9.9999999999999995E-007   1.7938066473454059E-004   9.9999999999999995E-007
 int2e_file: read     61 integrals in record     1 of      1.
  int2e_file: get range                     1                    4                    1                    4                    1                    4                    1                    4                    6                   55
 int2e_file: EOF at record    2 of     1?
 int2e_file: EOF at record    2 of     1?
                  2    2  1.1723E-04  3.6555E-03    0.0427     0.0

                              ----- Line search ------

        step       energy         lsg     num-lsg   num-lsh   lsrat    time
      ------- ---------------- --------- --------- --------- ------- --------
       0.0000      -2.90077630 -1.95D-04  0.00D+00  0.00D+00 0.0D+00      0.0

 global array: rohf_s_e: MOs[1:4,1:4],  handle: -992 

            1           2           3           4  
       ----------- ----------- ----------- -----------
   1       0.59607    -0.24343     0.00969    -1.16656
   2       0.41328    -0.60125     0.12465     1.56231
   3       0.17884     0.40490     1.25233     0.02926
   4       0.02067     0.93493    -1.23353    -0.58668

 global array: rohf: cdens[1:4,1:4],  handle: -991 

            1           2           3           4  
       ----------- ----------- ----------- -----------
   1       0.71060     0.49269     0.21320     0.02464
   2       0.49269     0.34160     0.14782     0.01709
   3       0.21320     0.14782     0.06397     0.00739
   4       0.02464     0.01709     0.00739     0.00085

 global array: rohf: hcore[1:4,1:4],  handle: -989 

            1           2           3           4  
       ----------- ----------- ----------- -----------
   1      -2.44891    -1.90679    -0.69811    -0.95704
   2      -1.90679    -1.83310    -0.97603    -1.23926
   3      -0.69811    -0.97603    -1.39245    -1.21472
   4      -0.95704    -1.23926    -1.21472    -1.35731
 *** fock_2e: xc_active  F
  int2e_file: rewinding ./scratch/helium.aoints.0
  oread, owrite, incmax, incmin, incomplete  T F                   -1                   -1                   -1
  Building from file    9.9999999999999995E-008
 fockfile: tols    9.9999999999999995E-008   9.9999999999999995E-007  0.71060159244681709        1.4072583155305019E-007
 int2e_file: read     61 integrals in record     1 of      1.
  int2e_file: get range                     1                    4                    1                    4                    1                    4                    1                    4                    6                   55
 int2e_file: EOF at record    2 of     1?
 int2e_file: EOF at record    2 of     1?
  Symmetrized combined AO fock matrices 

 global array: rohf: cfock[1:4,1:4],  handle: -990 

            1           2           3           4  
       ----------- ----------- ----------- -----------
   1      -1.13157    -1.36255    -0.64769    -0.79205
   2      -1.36255    -0.97546    -0.65555    -0.71731
   3      -0.64769    -0.65555    -0.40397    -0.66877
   4      -0.79205    -0.71731    -0.66877    -0.63689

 global array: rohf_init: FCV[1:4,1:4],  handle: -996 

            1           2           3           4  
       ----------- ----------- ----------- -----------
   1      -1.52488     0.00000     0.00004     0.00001
   2       0.00000    -0.33397     0.00054    -0.00007
   3       0.00004     0.00054     0.46414     0.00073
   4       0.00001    -0.00007     0.00073     1.06421
  e1o=  0.00000000D+00, e1c= -5.02924656D+00, e2o=  0.00000000D+00, e2c=  9.89745370D-01

 Wrote rohf: cfock to ./scratch/helium.cfock

 total energy =      -2.900873436474
 1-e energy   =      -5.029246560901
 2-e energy   =       0.989745369720
 nucl. energy =       1.138627754706

       1.0000      -2.90087344  6.00D-07  4.68D-07  1.95D-04 3.1D-03      0.0

              iter       energy          gnorm     gmax       time
             ----- ------------------- --------- --------- --------
                 3       -2.9008734365  1.52D-04  1.48D-04      0.0

                              Intermediate MO vectors
                              -----------------------


 global array: scf_init: MOs[1:4,1:4],  handle: -1000 

            1           2           3           4  
       ----------- ----------- ----------- -----------
   1       0.59607    -0.24343     0.00969    -1.16656
   2       0.41328    -0.60125     0.12465     1.56231
   3       0.17884     0.40490     1.25233     0.02926
   4       0.02067     0.93493    -1.23353    -0.58668

            ----- linear solve (tol: 6.6E-02 prod-acc: 5.8E-11) -----

               iter nbas    rnorm     rnorm-scal   ratio     time
               ---- ---- ----------- ----------- --------- -------
 rohf_wrap.F: in g_x =    1              0.00015185
 rohf_wrap.F: out g_x =    1              0.00001889
 *** fock_2e: xc_active  F
  int2e_file: rewinding ./scratch/helium.aoints.0
  oread, owrite, incmax, incmin, incomplete  T F                   -1                   -1                   -1
  Building from file    5.7735026918962574E-011
 fockfile: tols    5.7735026918962574E-011   9.9999999999999995E-007   7.4518715385955231E-006   9.9999999999999995E-007
 int2e_file: read     61 integrals in record     1 of      1.
  int2e_file: get range                     1                    4                    1                    4                    1                    4                    1                    4                    6                   55
 int2e_file: EOF at record    2 of     1?
 int2e_file: EOF at record    2 of     1?
                  1    1  6.0206E-06  3.9650E-02    0.0000     0.0

                              ----- Line search ------

        step       energy         lsg     num-lsg   num-lsh   lsrat    time
      ------- ---------------- --------- --------- --------- ------- --------
       0.0000      -2.90087344 -3.44D-09  0.00D+00  0.00D+00 0.0D+00      0.0

 global array: rohf_s_e: MOs[1:4,1:4],  handle: -992 

            1           2           3           4  
       ----------- ----------- ----------- -----------
   1       0.59608    -0.24343     0.00970    -1.16655
   2       0.41327    -0.60125     0.12466     1.56231
   3       0.17881     0.40490     1.25233     0.02926
   4       0.02070     0.93493    -1.23353    -0.58668

 global array: rohf: cdens[1:4,1:4],  handle: -991 

            1           2           3           4  
       ----------- ----------- ----------- -----------
   1       0.71061     0.49268     0.21317     0.02468
   2       0.49268     0.34159     0.14780     0.01711
   3       0.21317     0.14780     0.06395     0.00740
   4       0.02468     0.01711     0.00740     0.00086

 global array: rohf: hcore[1:4,1:4],  handle: -989 

            1           2           3           4  
       ----------- ----------- ----------- -----------
   1      -2.44891    -1.90679    -0.69811    -0.95704
   2      -1.90679    -1.83310    -0.97603    -1.23926
   3      -0.69811    -0.97603    -1.39245    -1.21472
   4      -0.95704    -1.23926    -1.21472    -1.35731
 *** fock_2e: xc_active  F
  int2e_file: rewinding ./scratch/helium.aoints.0
  oread, owrite, incmax, incmin, incomplete  T F                   -1                   -1                   -1
  Building from file    9.9999999999999995E-008
 fockfile: tols    9.9999999999999995E-008   9.9999999999999995E-007  0.71061213123335365        1.4072374450804526E-007
 int2e_file: read     61 integrals in record     1 of      1.
  int2e_file: get range                     1                    4                    1                    4                    1                    4                    1                    4                    6                   55
 int2e_file: EOF at record    2 of     1?
 int2e_file: EOF at record    2 of     1?
  Symmetrized combined AO fock matrices 

 global array: rohf: cfock[1:4,1:4],  handle: -990 

            1           2           3           4  
       ----------- ----------- ----------- -----------
   1      -1.13157    -1.36255    -0.64769    -0.79205
   2      -1.36255    -0.97546    -0.65555    -0.71732
   3      -0.64769    -0.65555    -0.40397    -0.66877
   4      -0.79205    -0.71732    -0.66877    -0.63690

 global array: rohf_init: FCV[1:4,1:4],  handle: -996 

            1           2           3           4  
       ----------- ----------- ----------- -----------
   1      -1.52488    -0.00000     0.00000    -0.00000
   2      -0.00000    -0.33397     0.00054    -0.00007
   3       0.00000     0.00054     0.46414     0.00073
   4      -0.00000    -0.00007     0.00073     1.06422
  e1o=  0.00000000D+00, e1c= -5.02924938D+00, e2o=  0.00000000D+00, e2c=  9.89748184D-01

 Wrote rohf: cfock to ./scratch/helium.cfock

 total energy =      -2.900873438199
 1-e energy   =      -5.029249376641
 2-e energy   =       0.989748183735
 nucl. energy =       1.138627754706

       1.0000      -2.90087344 -1.23D-11 -1.23D-11  3.43D-09 3.6D-03      0.0

              iter       energy          gnorm     gmax       time
             ----- ------------------- --------- --------- --------
                 4       -2.9008734382  6.02D-06  5.65D-06      0.0


                Eigenvalues
                -----------

              1      
    1   -1.5249
    2   -0.3340
    3    0.4641
    4    1.0642

 Wrote molecular orbitals to ./perm/helium.movecs



       Final RHF  results 
       ------------------ 

         Total SCF energy =     -2.900873438199
      One-electron energy =     -5.029249376641
      Two-electron energy =      0.989748183735
 Nuclear repulsion energy =      1.138627754706

        Time for solution =      0.0s


             Final eigenvalues
             -----------------

              1      
    1   -1.5249
    2   -0.3340
    3    0.4641
    4    1.0642

                       ROHF Final Molecular Orbital Analysis
                       -------------------------------------

 Vector    1  Occ=2.000000D+00  E=-1.524877D+00
              MO Center= -2.2D-01,  0.0D+00,  0.0D+00, r^2= 3.6D-01
   Bfn.  Coefficient  Atom+Function         Bfn.  Coefficient  Atom+Function  
  ----- ------------  ---------------      ----- ------------  ---------------
     1      0.596076  1 He s                  2      0.413273  1 He s          
     3      0.178812  2 H  s          

 Vector    2  Occ=0.000000D+00  E=-3.339739D-01
              MO Center=  7.1D-01,  0.0D+00,  0.0D+00, r^2= 1.0D+00
   Bfn.  Coefficient  Atom+Function         Bfn.  Coefficient  Atom+Function  
  ----- ------------  ---------------      ----- ------------  ---------------
     4      0.935741  2 H  s                  2     -0.601255  1 He s          
     3      0.404053  2 H  s                  1     -0.243492  1 He s          

 Vector    3  Occ=0.000000D+00  E= 4.641345D-01
              MO Center=  6.9D-01,  0.0D+00,  0.0D+00, r^2= 1.2D+00
   Bfn.  Coefficient  Atom+Function         Bfn.  Coefficient  Atom+Function  
  ----- ------------  ---------------      ----- ------------  ---------------
     3      1.252567  2 H  s                  4     -1.232178  2 H  s          

 Vector    4  Occ=0.000000D+00  E= 1.064217D+00
              MO Center= -3.5D-01,  0.0D+00,  0.0D+00, r^2= 9.1D-01
   Bfn.  Coefficient  Atom+Function         Bfn.  Coefficient  Atom+Function  
  ----- ------------  ---------------      ----- ------------  ---------------
     2      1.562488  1 He s                  1     -1.166530  1 He s          
     4     -0.588229  2 H  s          


                                 Final MO vectors
                                 ----------------


 global array: scf_init: MOs[1:4,1:4],  handle: -1000 

            1           2           3           4  
       ----------- ----------- ----------- -----------
   1       0.59608    -0.24349     0.01096    -1.16653
   2       0.41327    -0.60126     0.12235     1.56249
   3       0.17881     0.40405     1.25257     0.03076
   4       0.02070     0.93574    -1.23218    -0.58823

 center of mass
 --------------
 x =  -0.23218777 y =   0.00000000 z =   0.00000000

 moments of inertia (a.u.)
 ------------------
           0.000000000000           0.000000000000           0.000000000000
           0.000000000000           2.483986392248           0.000000000000
           0.000000000000           0.000000000000           2.483986392248

  Mulliken analysis of the total density
  --------------------------------------

   Bfn.    Population  Atom+Function
   ---------------------------------
     1      1.070924    1 He s          
     2      0.730335    1 He s          
     3      0.174270    2 H  s          
     4      0.024471    2 H  s          

    Atom       Charge   Shell Charges
 -----------   ------   -------------------------------------------------------
    1 He   2     1.80   1.07  0.73
    2 H    1     0.20   0.17  0.02

       Multipole analysis of the density wrt the origin
       ------------------------------------------------

     L   x y z        total         open         nuclear
     -   - - -        -----         ----         -------
     0   0 0 0      1.000000      0.000000      3.000000

     1   1 0 0      0.813687      0.000000      0.000000
     1   0 1 0      0.000000      0.000000      0.000000
     1   0 0 1      0.000000      0.000000      0.000000

     2   2 0 0      0.599796      0.000000      2.056862
     2   1 1 0      0.000000      0.000000      0.000000
     2   1 0 1      0.000000      0.000000      0.000000
     2   0 2 0     -0.716462      0.000000      0.000000
     2   0 1 1      0.000000      0.000000      0.000000
     2   0 0 2     -0.716462      0.000000      0.000000


 Wrote molecular orbitals to ./perm/helium.movecs


 Parallel integral file used       1 records with       0 large values

  int2e_file: closing ./scratch/helium.aoints.0

 Task  times  cpu:        0.0s     wall:        0.0s
 Summary of allocated global arrays
-----------------------------------
  No active global arrays



                         GA Statistics for process    0
                         ------------------------------

       create   destroy   get      put      acc     scatter   gather  read&inc
calls:  147      147      519      342      158        0        0        8     
number of processes/call 1.00e+00 1.00e+00 1.00e+00 0.00e+00 0.00e+00
bytes total:             3.60e+04 2.16e+04 4.19e+03 0.00e+00 0.00e+00 6.40e+01
bytes remote:            0.00e+00 0.00e+00 0.00e+00 0.00e+00 0.00e+00 0.00e+00
Max memory consumed for GA by this process: 1728 bytes
MA_summarize_allocated_blocks: starting scan ...
MA_summarize_allocated_blocks: scan completed: 0 heap blocks, 0 stack blocks
MA usage statistics:

	allocation statistics:
					      heap	     stack
					      ----	     -----
	current number of blocks	         0	         0
	maximum number of blocks	        17	        14
	current total bytes		         0	         0
	maximum total bytes		   1052712	  22509000
	maximum total K-bytes		      1053	     22509
	maximum total M-bytes		         2	        23


                                NWChem Input Module
                                -------------------





                                     CITATION
                                     --------
                Please cite the following reference when publishing
                           results obtained with NWChem:

                 M. Valiev, E.J. Bylaska, N. Govind, K. Kowalski,
              T.P. Straatsma, H.J.J. van Dam, D. Wang, J. Nieplocha,
                        E. Apra, T.L. Windus, W.A. de Jong
                 "NWChem: a comprehensive and scalable open-source
                  solution for large scale molecular simulations"
                      Comput. Phys. Commun. 181, 1477 (2010)
                           doi:10.1016/j.cpc.2010.04.018

                                      AUTHORS
                                      -------
          E. Apra, E. J. Bylaska, W. A. de Jong, N. Govind, K. Kowalski,
       T. P. Straatsma, M. Valiev, H. J. J. van Dam, D. Wang, T. L. Windus,
        J. Hammond, J. Autschbach, K. Bhaskaran-Nair, J. Brabec, K. Lopata,
       S. A. Fischer, S. Krishnamoorthy, W. Ma, M. Klemm, O. Villa, Y. Chen,
    V. Anisimov, F. Aquino, S. Hirata, M. T. Hackler, T. Risthaus, M. Malagoli,
       A. Marenich, A. Otero-de-la-Roza, J. Mullin, P. Nichols, R. Peverati,
     J. Pittner, Y. Zhao, P.-D. Fan, A. Fonari, M. Williamson, R. J. Harrison,
       J. R. Rehr, M. Dupuis, D. Silverstein, D. M. A. Smith, J. Nieplocha,
        V. Tipparaju, M. Krishnan, B. E. Van Kuiken, A. Vazquez-Mayagoitia,
        L. Jensen, M. Swart, Q. Wu, T. Van Voorhis, A. A. Auer, M. Nooijen,
      L. D. Crosby, E. Brown, G. Cisneros, G. I. Fann, H. Fruchtl, J. Garza,
        K. Hirao, R. A. Kendall, J. A. Nichols, K. Tsemekhman, K. Wolinski,
     J. Anchell, D. E. Bernholdt, P. Borowski, T. Clark, D. Clerc, H. Dachsel,
   M. J. O. Deegan, K. Dyall, D. Elwood, E. Glendening, M. Gutowski, A. C. Hess,
         J. Jaffe, B. G. Johnson, J. Ju, R. Kobayashi, R. Kutteh, Z. Lin,
   R. Littlefield, X. Long, B. Meng, T. Nakajima, S. Niu, L. Pollack, M. Rosing,
   K. Glaesemann, G. Sandrone, M. Stave, H. Taylor, G. Thomas, J. H. van Lenthe,
                               A. T. Wong, Z. Zhang.

 Total times  cpu:        0.0s     wall:        0.0s
