 argument  1 = ammonia.nw



============================== echo of input deck ==============================
echo
start ammonia

permanent_dir ./perm
scratch_dir ./scratch

charge 0
geometry units angstroms noautosym
N            .000000     .000000     .116489
H           .000000     .939731    -.271808
H            .813831    -.469865    -.271808
H           -.813831    -.469865    -.271808
end

basis
 * library sto-3g
end

scf
print overlap kinetic potential ao2eints debug
end
task scf
================================================================================


                                         
                                         


              Northwest Computational Chemistry Package (NWChem) 6.6
              ------------------------------------------------------


                    Environmental Molecular Sciences Laboratory
                       Pacific Northwest National Laboratory
                                Richland, WA 99352

                              Copyright (c) 1994-2015
                       Pacific Northwest National Laboratory
                            Battelle Memorial Institute

             NWChem is an open-source computational chemistry package
                        distributed under the terms of the
                      Educational Community License (ECL) 2.0
             A copy of the license is included with this distribution
                              in the LICENSE.TXT file

                                  ACKNOWLEDGMENT
                                  --------------

            This software and its documentation were developed at the
            EMSL at Pacific Northwest National Laboratory, a multiprogram
            national laboratory, operated for the U.S. Department of Energy
            by Battelle under Contract Number DE-AC05-76RL01830. Support
            for this work was provided by the Department of Energy Office
            of Biological and Environmental Research, Office of Basic
            Energy Sciences, and the Office of Advanced Scientific Computing.


           Job information
           ---------------

    hostname        = derek
    program         = nwchem
    date            = Sun Sep 24 16:39:02 2017

    compiled        = Mon_Feb_15_08:24:17_2016
    source          = /build/nwchem-MF0R1k/nwchem-6.6+r27746
    nwchem branch   = 6.6
    nwchem revision = 27746
    ga revision     = 10594
    input           = ammonia.nw
    prefix          = ammonia.
    data base       = ./perm/ammonia.db
    status          = startup
    nproc           =        1
    time left       =     -1s



           Memory information
           ------------------

    heap     =   13107196 doubles =    100.0 Mbytes
    stack    =   13107201 doubles =    100.0 Mbytes
    global   =   26214400 doubles =    200.0 Mbytes (distinct from heap & stack)
    total    =   52428797 doubles =    400.0 Mbytes
    verify   = yes
    hardfail = no 


           Directory information
           ---------------------

  0 permanent = ./perm
  0 scratch   = ./scratch




                                NWChem Input Module
                                -------------------



 Scaling coordinates for geometry "geometry" by  1.889725989
 (inverse scale =  0.529177249)


          ------
          auto-z
          ------
  Looking for out-of-plane bends


                             Geometry "geometry" -> ""
                             -------------------------

 Output coordinates in angstroms (scale by  1.889725989 to convert to a.u.)

  No.       Tag          Charge          X              Y              Z
 ---- ---------------- ---------- -------------- -------------- --------------
    1 N                    7.0000     0.00000000    -0.00000010     0.11648910
    2 H                    1.0000     0.00000000     0.93973090    -0.27180790
    3 H                    1.0000     0.81383100    -0.46986510    -0.27180790
    4 H                    1.0000    -0.81383100    -0.46986510    -0.27180790

      Atomic Mass 
      ----------- 

      N                 14.003070
      H                  1.007825


 Effective nuclear repulsion energy (a.u.)      11.9045298307

            Nuclear Dipole moment (a.u.) 
            ----------------------------
        X                 Y               Z
 ---------------- ---------------- ----------------
     0.0000000000    -0.0000000000    -0.0000000000



                                Z-matrix (autoz)
                                -------- 

 Units are Angstrom for bonds and degrees for angles

      Type          Name      I     J     K     L     M      Value
      ----------- --------  ----- ----- ----- ----- ----- ----------
    1 Stretch                  1     2                       1.01679
    2 Stretch                  1     3                       1.01679
    3 Stretch                  1     4                       1.01679
    4 Bend                     2     1     3               106.33462
    5 Bend                     2     1     4               106.33462
    6 Bend                     3     1     4               106.33469
    7 Torsion                  2     1     3     4        -113.03531
    8 Torsion                  2     1     4     3         113.03531
    9 Torsion                  3     1     2     4         113.03536
   10 Torsion                  2     4     1     3        -113.03531
   11 Torsion                  3     2     1     4        -113.03536
   12 Torsion                  2     3     1     4         113.03531


            XYZ format geometry
            -------------------
     4
 geometry
 N                     0.00000000    -0.00000010     0.11648910
 H                     0.00000000     0.93973090    -0.27180790
 H                     0.81383100    -0.46986510    -0.27180790
 H                    -0.81383100    -0.46986510    -0.27180790

 ==============================================================================
                                internuclear distances
 ------------------------------------------------------------------------------
       center one      |      center two      | atomic units |  angstroms
 ------------------------------------------------------------------------------
    2 H                |   1 N                |     1.92146  |     1.01679
    3 H                |   1 N                |     1.92146  |     1.01679
    4 H                |   1 N                |     1.92146  |     1.01679
 ------------------------------------------------------------------------------
                         number of included internuclear distances:          3
 ==============================================================================



 ==============================================================================
                                 internuclear angles
 ------------------------------------------------------------------------------
        center 1       |       center 2       |       center 3       |  degrees
 ------------------------------------------------------------------------------
    2 H                |   1 N                |   3 H                |   106.33
    2 H                |   1 N                |   4 H                |   106.33
    3 H                |   1 N                |   4 H                |   106.33
 ------------------------------------------------------------------------------
                            number of included internuclear angles:          3
 ==============================================================================





 Summary of "ao basis" -> "" (cartesian)
 ------------------------------------------------------------------------------
       Tag                 Description            Shells   Functions and Types
 ---------------- ------------------------------  ------  ---------------------
 *                           sto-3g                   on all atoms 


                      Basis "ao basis" -> "ao basis" (cartesian)
                      -----
  N (Nitrogen)
  ------------
            Exponent  Coefficients 
       -------------- ---------------------------------------------------------
  1 S  9.91061690E+01  0.154329
  1 S  1.80523120E+01  0.535328
  1 S  4.88566020E+00  0.444635

  2 S  3.78045590E+00 -0.099967
  2 S  8.78496600E-01  0.399513
  2 S  2.85714400E-01  0.700115

  3 P  3.78045590E+00  0.155916
  3 P  8.78496600E-01  0.607684
  3 P  2.85714400E-01  0.391957

  H (Hydrogen)
  ------------
            Exponent  Coefficients 
       -------------- ---------------------------------------------------------
  1 S  3.42525091E+00  0.154329
  1 S  6.23913730E-01  0.535328
  1 S  1.68855400E-01  0.444635



 Summary of "ao basis" -> "ao basis" (cartesian)
 ------------------------------------------------------------------------------
       Tag                 Description            Shells   Functions and Types
 ---------------- ------------------------------  ------  ---------------------
 N                           sto-3g                  3        5   2s1p
 H                           sto-3g                  1        1   1s



 Setting fock-build task_bf   :      -1
                    maxquartet:   10000
                    maxeri    :  129600
                    maxscr    :       0
                    intacc    : 0.0D+00
                    denscreen : T
                    dentol    : 1.0D-06

                                 NWChem SCF Module
                                 -----------------



  ao basis        = "ao basis"
  functions       =     8
  atoms           =     4
  closed shells   =     5
  open shells     =     0
  charge          =   0.00
  wavefunction    = RHF 
  input vectors   = atomic
  output vectors  = ./perm/ammonia.movecs
  use symmetry    = F
  symmetry adapt  = F


 Summary of "ao basis" -> "ao basis" (cartesian)
 ------------------------------------------------------------------------------
       Tag                 Description            Shells   Functions and Types
 ---------------- ------------------------------  ------  ---------------------
 N                           sto-3g                  3        5   2s1p
 H                           sto-3g                  1        1   1s




                         Geometry "geometry" -> "geometry"
                         ---------------------------------

 Output coordinates in angstroms (scale by  1.889725989 to convert to a.u.)

  No.       Tag          Charge          X              Y              Z
 ---- ---------------- ---------- -------------- -------------- --------------
    1 N                    7.0000     0.00000000    -0.00000010     0.11648910
    2 H                    1.0000     0.00000000     0.93973090    -0.27180790
    3 H                    1.0000     0.81383100    -0.46986510    -0.27180790
    4 H                    1.0000    -0.81383100    -0.46986510    -0.27180790

      Atomic Mass 
      ----------- 

      N                 14.003070
      H                  1.007825


 Effective nuclear repulsion energy (a.u.)      11.9045298307

            Nuclear Dipole moment (a.u.) 
            ----------------------------
        X                 Y               Z
 ---------------- ---------------- ----------------
     0.0000000000    -0.0000000000    -0.0000000000



                                Z-matrix (autoz)
                                -------- 

 Units are Angstrom for bonds and degrees for angles

      Type          Name      I     J     K     L     M      Value
      ----------- --------  ----- ----- ----- ----- ----- ----------
    1 Stretch                  1     2                       1.01679
    2 Stretch                  1     3                       1.01679
    3 Stretch                  1     4                       1.01679
    4 Bend                     2     1     3               106.33462
    5 Bend                     2     1     4               106.33462
    6 Bend                     3     1     4               106.33469
    7 Torsion                  2     1     3     4        -113.03531
    8 Torsion                  2     1     4     3         113.03531
    9 Torsion                  3     1     2     4         113.03536
   10 Torsion                  2     4     1     3        -113.03531
   11 Torsion                  3     2     1     4        -113.03536
   12 Torsion                  2     3     1     4         113.03531


      Symmetry information
      --------------------

 Group name             C1        
 Group number              1
 Group order               1
 No. of unique centers     4



                  Character table for group C1      

                  1e     
        a          1.000

      Symmetry unique atoms

     1    2    3    4

      Mapping of centers


      Group operations



                      Basis "ao basis" -> "ao basis" (cartesian)
                      -----
  N (Nitrogen)
  ------------
            Exponent  Coefficients 
       -------------- ---------------------------------------------------------
  1 S  9.91061690E+01  0.154329
  1 S  1.80523120E+01  0.535328
  1 S  4.88566020E+00  0.444635

  2 S  3.78045590E+00 -0.099967
  2 S  8.78496600E-01  0.399513
  2 S  2.85714400E-01  0.700115

  3 P  3.78045590E+00  0.155916
  3 P  8.78496600E-01  0.607684
  3 P  2.85714400E-01  0.391957

  H (Hydrogen)
  ------------
            Exponent  Coefficients 
       -------------- ---------------------------------------------------------
  1 S  3.42525091E+00  0.154329
  1 S  6.23913730E-01  0.535328
  1 S  1.68855400E-01  0.444635



    Basis function labels
    ---------------------
       No.  Atm El Type
       ---  --- -- ----
        1    1 N  s          
        2    1 N  s          
        3    1 N  px         
        4    1 N  py         
        5    1 N  pz         
        6    2 H  s          
        7    3 H  s          
        8    4 H  s          
 <<< GBS_MAP_PRINT >>>
  total number of atoms           :                    4
  total number of contractions    :                    6
  total number of primitives      :                   18
  total number of coefficients    :                   18
  total number of basis functions :                    8
  
 ================================================================================
  center -> unique center map          <ibs_ce2uce>
         -> contraction range map      <ibs_ce2cnr>
 ================================================================================
 center:   1  maps to unique center:  1
              has   3  contractions   <first:   1>  <last:   3>

 center:   2  maps to unique center:  2
              has   1  contractions   <first:   4>  <last:   4>

 center:   3  maps to unique center:  2
              has   1  contractions   <first:   5>  <last:   5>

 center:   4  maps to unique center:  2
              has   1  contractions   <first:   6>  <last:   6>

  
 ================================================================================
  contraction -> center map                                     <ibs_cn2ce>
              -> unique contraction in basis set                <ibs_cn2ucn>
              -> basis function range                           <ibs_cn2bfr>
 ================================================================================
 contraction   1  is on center:  1
                  is represented by unique contraction:  1
                  has    1 basis functions <first:    1>  <last:    1>

 contraction   2  is on center:  1
                  is represented by unique contraction:  2
                  has    1 basis functions <first:    2>  <last:    2>

 contraction   3  is on center:  1
                  is represented by unique contraction:  3
                  has    3 basis functions <first:    3>  <last:    5>

 contraction   4  is on center:  2
                  is represented by unique contraction:  4
                  has    1 basis functions <first:    6>  <last:    6>

 contraction   5  is on center:  3
                  is represented by unique contraction:  4
                  has    1 basis functions <first:    7>  <last:    7>

 contraction   6  is on center:  4
                  is represented by unique contraction:  4
                  has    1 basis functions <first:    8>  <last:    8>


 nwchem basis set
 ics=  1 ib=  0 nat=  1 shz=  1 gc=  0 ie=  3 lcf=  1 fcf=  0 type= 1
 ics=  2 ib=  3 nat=  1 shz=  1 gc=  0 ie=  6 lcf=  2 fcf=  1 type= 1
 ics=  3 ib=  6 nat=  1 shz=  3 gc=  0 ie=  9 lcf=  5 fcf=  2 type= 2
 ics=  4 ib=  9 nat=  2 shz=  1 gc=  0 ie= 12 lcf=  6 fcf=  5 type= 1
 ics=  5 ib= 12 nat=  3 shz=  1 gc=  0 ie= 15 lcf=  7 fcf=  6 type= 1
 ics=  6 ib= 15 nat=  4 shz=  1 gc=  0 ie= 18 lcf=  8 fcf=  7 type= 1
 texas basis set
 ics=  1 ib=  9 nat=  2 shz=  1 gc=  0 ie= 12 lcf=  1 fcf=  0 type= 1
 ics=  2 ib= 12 nat=  3 shz=  1 gc=  0 ie= 15 lcf=  2 fcf=  1 type= 1
 ics=  3 ib= 15 nat=  4 shz=  1 gc=  0 ie= 18 lcf=  3 fcf=  2 type= 1
 ics=  4 ib=  3 nat=  1 shz=  1 gc=  0 ie=  6 lcf=  4 fcf=  3 type= 1
 ics=  5 ib=  0 nat=  1 shz=  1 gc=  0 ie=  3 lcf=  5 fcf=  4 type= 1
 ics=  6 ib=  6 nat=  1 shz=  3 gc=  0 ie=  9 lcf=  8 fcf=  5 type= 2
 translation shell-nwchem -> shell-texas
                    1                    5
                    2                    4
                    3                    6
                    4                    1
                    5                    2
                    6                    3
 ====================================
 Begin kinetic 1-e integrals
 ====================================
1eke          1   N  s     1   N  s          21.99075314
1eke          2   N  s     1   N  s          -0.12841638
1eke          6   H  s     1   N  s          -0.00645012
1eke          7   H  s     1   N  s          -0.00645011
1eke          8   H  s     1   N  s          -0.00645011
1eke          1   N  s     2   N  s          -0.12841638
1eke          2   N  s     2   N  s           0.60699388
1eke          6   H  s     2   N  s           0.12099966
1eke          7   H  s     2   N  s           0.12099972
1eke          8   H  s     2   N  s           0.12099972
1eke          3   N  p     3   N  p           1.89935805
1eke          4   N  p     4   N  p           1.89935805
1eke          5   N  p     5   N  p           1.89935805
1eke          6   H  s     4   N  p           0.25939914
1eke          6   H  s     5   N  p          -0.10718377
1eke          7   H  s     3   N  p           0.22464640
1eke          7   H  s     4   N  p          -0.12969951
1eke          7   H  s     5   N  p          -0.10718383
1eke          8   H  s     3   N  p          -0.22464640
1eke          8   H  s     4   N  p          -0.12969951
1eke          8   H  s     5   N  p          -0.10718383
1eke          1   N  s     6   H  s          -0.00645012
1eke          2   N  s     6   H  s           0.12099966
1eke          4   N  p     6   H  s           0.25939914
1eke          5   N  p     6   H  s          -0.10718377
1eke          6   H  s     6   H  s           0.76003188
1eke          7   H  s     6   H  s           0.00084585
1eke          8   H  s     6   H  s           0.00084585
1eke          1   N  s     7   H  s          -0.00645011
1eke          2   N  s     7   H  s           0.12099972
1eke          3   N  p     7   H  s           0.22464640
1eke          4   N  p     7   H  s          -0.12969951
1eke          5   N  p     7   H  s          -0.10718383
1eke          6   H  s     7   H  s           0.00084585
1eke          7   H  s     7   H  s           0.76003188
1eke          8   H  s     7   H  s           0.00084582
1eke          1   N  s     8   H  s          -0.00645011
1eke          2   N  s     8   H  s           0.12099972
1eke          3   N  p     8   H  s          -0.22464640
1eke          4   N  p     8   H  s          -0.12969951
1eke          5   N  p     8   H  s          -0.10718383
1eke          6   H  s     8   H  s           0.00084585
1eke          7   H  s     8   H  s           0.00084582
1eke          8   H  s     8   H  s           0.76003188
 ====================================
 End kinetic 1-e integrals
 ====================================
 ====================================
 Begin potential 1-e integrals
 ====================================
1epe          1   N  s     1   N  s         -47.74727569
1epe          2   N  s     1   N  s          -5.79991374
1epe          5   N  p     1   N  s           0.01797733
1epe          6   H  s     1   N  s          -1.46171528
1epe          7   H  s     1   N  s          -1.46171586
1epe          8   H  s     1   N  s          -1.46171586
1epe          1   N  s     2   N  s          -5.79991374
1epe          2   N  s     2   N  s          -8.39267249
1epe          4   N  p     2   N  s          -0.00000011
1epe          5   N  p     2   N  s           0.20675441
1epe          6   H  s     2   N  s          -3.43358781
1epe          7   H  s     2   N  s          -3.43358865
1epe          8   H  s     2   N  s          -3.43358865
1epe          1   N  s     5   N  p           0.01797733
1epe          2   N  s     4   N  p          -0.00000011
1epe          2   N  s     5   N  p           0.20675441
1epe          3   N  p     3   N  p          -8.37344233
1epe          4   N  p     4   N  p          -8.37344211
1epe          5   N  p     4   N  p           0.00000002
1epe          4   N  p     5   N  p           0.00000002
1epe          5   N  p     5   N  p          -8.26439140
1epe          6   H  s     4   N  p          -2.56605061
1epe          6   H  s     5   N  p           1.12245820
1epe          7   H  s     3   N  p          -2.22226600
1epe          7   H  s     4   N  p           1.28302431
1epe          7   H  s     5   N  p           1.12245857
1epe          8   H  s     3   N  p           2.22226600
1epe          8   H  s     4   N  p           1.28302431
1epe          8   H  s     5   N  p           1.12245857
1epe          1   N  s     6   H  s          -1.46171528
1epe          2   N  s     6   H  s          -3.43358781
1epe          4   N  p     6   H  s          -2.56605061
1epe          5   N  p     6   H  s           1.12245820
1epe          6   H  s     6   H  s          -5.41359696
1epe          7   H  s     6   H  s          -1.26669529
1epe          8   H  s     6   H  s          -1.26669529
1epe          1   N  s     7   H  s          -1.46171586
1epe          2   N  s     7   H  s          -3.43358865
1epe          3   N  p     7   H  s          -2.22226600
1epe          4   N  p     7   H  s           1.28302431
1epe          5   N  p     7   H  s           1.12245857
1epe          6   H  s     7   H  s          -1.26669529
1epe          7   H  s     7   H  s          -5.41359737
1epe          8   H  s     7   H  s          -1.26669444
1epe          1   N  s     8   H  s          -1.46171586
1epe          2   N  s     8   H  s          -3.43358865
1epe          3   N  p     8   H  s           2.22226600
1epe          4   N  p     8   H  s           1.28302431
1epe          5   N  p     8   H  s           1.12245857
1epe          6   H  s     8   H  s          -1.26669529
1epe          7   H  s     8   H  s          -1.26669444
1epe          8   H  s     8   H  s          -5.41359737
 ====================================
 End potential 1-e integrals
 ====================================
 ====================================
 Begin overlap 1-e integrals
 ====================================
1eov          1   N  s     1   N  s           1.00000000
1eov          2   N  s     1   N  s           0.23503777
1eov          6   H  s     1   N  s           0.05775686
1eov          7   H  s     1   N  s           0.05775688
1eov          8   H  s     1   N  s           0.05775688
1eov          1   N  s     2   N  s           0.23503777
1eov          2   N  s     2   N  s           1.00000000
1eov          6   H  s     2   N  s           0.49191690
1eov          7   H  s     2   N  s           0.49191700
1eov          8   H  s     2   N  s           0.49191700
1eov          3   N  p     3   N  p           1.00000000
1eov          4   N  p     4   N  p           1.00000000
1eov          5   N  p     5   N  p           1.00000000
1eov          6   H  s     4   N  p           0.40485649
1eov          6   H  s     5   N  p          -0.16728677
1eov          7   H  s     3   N  p           0.35061614
1eov          7   H  s     4   N  p          -0.20242809
1eov          7   H  s     5   N  p          -0.16728681
1eov          8   H  s     3   N  p          -0.35061614
1eov          8   H  s     4   N  p          -0.20242809
1eov          8   H  s     5   N  p          -0.16728681
1eov          1   N  s     6   H  s           0.05775686
1eov          2   N  s     6   H  s           0.49191690
1eov          4   N  p     6   H  s           0.40485649
1eov          5   N  p     6   H  s          -0.16728677
1eov          6   H  s     6   H  s           1.00000000
1eov          7   H  s     6   H  s           0.21318691
1eov          8   H  s     6   H  s           0.21318691
1eov          1   N  s     7   H  s           0.05775688
1eov          2   N  s     7   H  s           0.49191700
1eov          3   N  p     7   H  s           0.35061614
1eov          4   N  p     7   H  s          -0.20242809
1eov          5   N  p     7   H  s          -0.16728681
1eov          6   H  s     7   H  s           0.21318691
1eov          7   H  s     7   H  s           1.00000000
1eov          8   H  s     7   H  s           0.21318673
1eov          1   N  s     8   H  s           0.05775688
1eov          2   N  s     8   H  s           0.49191700
1eov          3   N  p     8   H  s          -0.35061614
1eov          4   N  p     8   H  s          -0.20242809
1eov          5   N  p     8   H  s          -0.16728681
1eov          6   H  s     8   H  s           0.21318691
1eov          7   H  s     8   H  s           0.21318673
1eov          8   H  s     8   H  s           1.00000000
 ====================================
 End overlap 1-e integrals
 ====================================
 ====================================
 Begin all 2-e integrals
 ====================================
 ao     1    1    1    1          4.16663034
 ao     1    1    1    2          0.64084888
 ao     1    1    1    6          0.15971242
 ao     1    1    1    7          0.15971248
 ao     1    1    1    8          0.15971248
 ao     1    1    2    1          0.64084888
 ao     1    1    2    2          0.96986387
 ao     1    1    2    6          0.37132615
 ao     1    1    2    7          0.37132625
 ao     1    1    2    8          0.37132625
 ao     1    1    3    3          0.96712375
 ao     1    1    4    4          0.96712375
 ao     1    1    5    5          0.96712375
 ao     1    1    4    6          0.26388684
 ao     1    1    5    6         -0.10903809
 ao     1    1    3    7          0.22853282
 ao     1    1    4    7         -0.13194333
 ao     1    1    5    7         -0.10903813
 ao     1    1    3    8         -0.22853282
 ao     1    1    4    8         -0.13194333
 ao     1    1    5    8         -0.10903813
 ao     1    1    6    1          0.15971242
 ao     1    1    6    2          0.37132615
 ao     1    1    6    4          0.26388684
 ao     1    1    6    5         -0.10903809
 ao     1    1    6    6          0.50471882
 ao     1    1    6    7          0.13151546
 ao     1    1    6    8          0.13151546
 ao     1    1    7    1          0.15971248
 ao     1    1    7    2          0.37132625
 ao     1    1    7    3          0.22853282
 ao     1    1    7    4         -0.13194333
 ao     1    1    7    5         -0.10903813
 ao     1    1    7    6          0.13151546
 ao     1    1    7    7          0.50471889
 ao     1    1    7    8          0.13151539
 ao     1    1    8    1          0.15971248
 ao     1    1    8    2          0.37132625
 ao     1    1    8    3         -0.22853282
 ao     1    1    8    4         -0.13194333
 ao     1    1    8    5         -0.10903813
 ao     1    1    8    6          0.13151546
 ao     1    1    8    7          0.13151539
 ao     1    1    8    8          0.50471889
 ao     1    2    1    1          0.64084888
 ao     1    2    1    2          0.11746124
 ao     1    2    1    6          0.02903286
 ao     1    2    1    7          0.02903287
 ao     1    2    1    8          0.02903287
 ao     1    2    2    1          0.11746124
 ao     1    2    2    2          0.22093566
 ao     1    2    2    6          0.08555780
 ao     1    2    2    7          0.08555783
 ao     1    2    2    8          0.08555783
 ao     1    2    3    3          0.22097739
 ao     1    2    4    4          0.22097739
 ao     1    2    5    5          0.22097739
 ao     1    2    4    6          0.06159400
 ao     1    2    5    6         -0.02545065
 ao     1    2    3    7          0.05334199
 ao     1    2    4    7         -0.03079698
 ao     1    2    5    7         -0.02545066
 ao     1    2    3    8         -0.05334199
 ao     1    2    4    8         -0.03079698
 ao     1    2    5    8         -0.02545066
 ao     1    2    6    1          0.02903286
 ao     1    2    6    2          0.08555780
 ao     1    2    6    4          0.06159400
 ao     1    2    6    5         -0.02545065
 ao     1    2    6    6          0.11816611
 ao     1    2    6    7          0.03050093
 ao     1    2    6    8          0.03050093
 ao     1    2    7    1          0.02903287
 ao     1    2    7    2          0.08555783
 ao     1    2    7    3          0.05334199
 ao     1    2    7    4         -0.03079698
 ao     1    2    7    5         -0.02545066
 ao     1    2    7    6          0.03050093
 ao     1    2    7    7          0.11816613
 ao     1    2    7    8          0.03050092
 ao     1    2    8    1          0.02903287
 ao     1    2    8    2          0.08555783
 ao     1    2    8    3         -0.05334199
 ao     1    2    8    4         -0.03079698
 ao     1    2    8    5         -0.02545066
 ao     1    2    8    6          0.03050093
 ao     1    2    8    7          0.03050092
 ao     1    2    8    8          0.11816613
 ao     1    3    1    3          0.02096043
 ao     1    4    1    4          0.02096043
 ao     1    5    1    5          0.02096043
 ao     1    4    1    6          0.00141193
 ao     1    5    1    6         -0.00058341
 ao     1    3    1    7          0.00122277
 ao     1    4    1    7         -0.00070597
 ao     1    5    1    7         -0.00058341
 ao     1    3    1    8         -0.00122277
 ao     1    4    1    8         -0.00070597
 ao     1    5    1    8         -0.00058341
 ao     1    3    2    3          0.03245163
 ao     1    4    2    4          0.03245163
 ao     1    5    2    5          0.03245163
 ao     1    4    2    6          0.00661240
 ao     1    5    2    6         -0.00273225
 ao     1    3    2    7          0.00572651
 ao     1    4    2    7         -0.00330620
 ao     1    5    2    7         -0.00273225
 ao     1    3    2    8         -0.00572651
 ao     1    4    2    8         -0.00330620
 ao     1    5    2    8         -0.00273225
 ao     1    3    3    1          0.02096043
 ao     1    4    4    1          0.02096043
 ao     1    5    5    1          0.02096043
 ao     1    3    3    2          0.03245163
 ao     1    4    4    2          0.03245163
 ao     1    5    5    2          0.03245163
 ao     1    3    3    6          0.00892276
 ao     1    4    4    6          0.01310200
 ao     1    4    5    6         -0.00172686
 ao     1    5    4    6         -0.00172686
 ao     1    5    5    6          0.00963630
 ao     1    3    3    7          0.01205720
 ao     1    3    4    7         -0.00180966
 ao     1    3    5    7         -0.00149551
 ao     1    4    3    7         -0.00180966
 ao     1    4    4    7          0.00996757
 ao     1    4    5    7          0.00086343
 ao     1    5    3    7         -0.00149551
 ao     1    5    4    7          0.00086343
 ao     1    5    5    7          0.00963631
 ao     1    3    3    8          0.01205720
 ao     1    3    4    8          0.00180966
 ao     1    3    5    8          0.00149551
 ao     1    4    3    8          0.00180966
 ao     1    4    4    8          0.00996757
 ao     1    4    5    8          0.00086343
 ao     1    5    3    8          0.00149551
 ao     1    5    4    8          0.00086343
 ao     1    5    5    8          0.00963631
 ao     1    4    6    1          0.00141193
 ao     1    5    6    1         -0.00058341
 ao     1    4    6    2          0.00661240
 ao     1    5    6    2         -0.00273225
 ao     1    3    6    3          0.00892276
 ao     1    4    6    4          0.01310200
 ao     1    4    6    5         -0.00172686
 ao     1    5    6    4         -0.00172686
 ao     1    5    6    5          0.00963630
 ao     1    4    6    6          0.01209123
 ao     1    5    6    6         -0.00499610
 ao     1    3    6    7          0.00164152
 ao     1    4    6    7          0.00094773
 ao     1    5    6    7         -0.00156641
 ao     1    3    6    8         -0.00164152
 ao     1    4    6    8          0.00094773
 ao     1    5    6    8         -0.00156641
 ao     1    3    7    1          0.00122277
 ao     1    4    7    1         -0.00070597
 ao     1    5    7    1         -0.00058341
 ao     1    3    7    2          0.00572651
 ao     1    4    7    2         -0.00330620
 ao     1    5    7    2         -0.00273225
 ao     1    3    7    3          0.01205720
 ao     1    3    7    4         -0.00180966
 ao     1    3    7    5         -0.00149551
 ao     1    4    7    3         -0.00180966
 ao     1    4    7    4          0.00996757
 ao     1    4    7    5          0.00086343
 ao     1    5    7    3         -0.00149551
 ao     1    5    7    4          0.00086343
 ao     1    5    7    5          0.00963631
 ao     1    3    7    6          0.00164152
 ao     1    4    7    6          0.00094773
 ao     1    5    7    6         -0.00156641
 ao     1    3    7    7          0.01047132
 ao     1    4    7    7         -0.00604561
 ao     1    5    7    7         -0.00499610
 ao     1    4    7    8         -0.00189546
 ao     1    5    7    8         -0.00156641
 ao     1    3    8    1         -0.00122277
 ao     1    4    8    1         -0.00070597
 ao     1    5    8    1         -0.00058341
 ao     1    3    8    2         -0.00572651
 ao     1    4    8    2         -0.00330620
 ao     1    5    8    2         -0.00273225
 ao     1    3    8    3          0.01205720
 ao     1    3    8    4          0.00180966
 ao     1    3    8    5          0.00149551
 ao     1    4    8    3          0.00180966
 ao     1    4    8    4          0.00996757
 ao     1    4    8    5          0.00086343
 ao     1    5    8    3          0.00149551
 ao     1    5    8    4          0.00086343
 ao     1    5    8    5          0.00963631
 ao     1    3    8    6         -0.00164152
 ao     1    4    8    6          0.00094773
 ao     1    5    8    6         -0.00156641
 ao     1    4    8    7         -0.00189546
 ao     1    5    8    7         -0.00156641
 ao     1    3    8    8         -0.01047132
 ao     1    4    8    8         -0.00604561
 ao     1    5    8    8         -0.00499610
 ao     1    6    1    1          0.15971242
 ao     1    6    1    2          0.02903286
 ao     1    6    1    4          0.00141193
 ao     1    6    1    5         -0.00058341
 ao     1    6    1    6          0.00729739
 ao     1    6    1    7          0.00714527
 ao     1    6    1    8          0.00714527
 ao     1    6    2    1          0.02903286
 ao     1    6    2    2          0.05427027
 ao     1    6    2    4          0.00264061
 ao     1    6    2    5         -0.00109110
 ao     1    6    2    6          0.02171461
 ao     1    6    2    7          0.02082219
 ao     1    6    2    8          0.02082219
 ao     1    6    4    1          0.00141193
 ao     1    6    5    1         -0.00058341
 ao     1    6    4    2          0.00264061
 ao     1    6    5    2         -0.00109110
 ao     1    6    3    3          0.05413420
 ao     1    6    4    4          0.05448841
 ao     1    6    4    5         -0.00014636
 ao     1    6    5    4         -0.00014636
 ao     1    6    5    5          0.05419468
 ao     1    6    4    6          0.01636116
 ao     1    6    5    6         -0.00676043
 ao     1    6    3    7          0.01297638
 ao     1    6    4    7         -0.00677469
 ao     1    6    5    7         -0.00648767
 ao     1    6    3    8         -0.01297638
 ao     1    6    4    8         -0.00677469
 ao     1    6    5    8         -0.00648767
 ao     1    6    6    1          0.00729739
 ao     1    6    6    2          0.02171461
 ao     1    6    6    4          0.01636116
 ao     1    6    6    5         -0.00676043
 ao     1    6    6    6          0.03036376
 ao     1    6    6    7          0.00763422
 ao     1    6    6    8          0.00763422
 ao     1    6    7    1          0.00714527
 ao     1    6    7    2          0.02082219
 ao     1    6    7    3          0.01297638
 ao     1    6    7    4         -0.00677469
 ao     1    6    7    5         -0.00648767
 ao     1    6    7    6          0.00763422
 ao     1    6    7    7          0.02865840
 ao     1    6    7    8          0.00738324
 ao     1    6    8    1          0.00714527
 ao     1    6    8    2          0.02082219
 ao     1    6    8    3         -0.01297638
 ao     1    6    8    4         -0.00677469
 ao     1    6    8    5         -0.00648767
 ao     1    6    8    6          0.00763422
 ao     1    6    8    7          0.00738324
 ao     1    6    8    8          0.02865840
 ao     1    7    1    1          0.15971248
 ao     1    7    1    2          0.02903287
 ao     1    7    1    3          0.00122277
 ao     1    7    1    4         -0.00070597
 ao     1    7    1    5         -0.00058341
 ao     1    7    1    6          0.00714527
 ao     1    7    1    7          0.00729739
 ao     1    7    1    8          0.00714527
 ao     1    7    2    1          0.02903287
 ao     1    7    2    2          0.05427029
 ao     1    7    2    3          0.00228683
 ao     1    7    2    4         -0.00132030
 ao     1    7    2    5         -0.00109110
 ao     1    7    2    6          0.02082219
 ao     1    7    2    7          0.02171463
 ao     1    7    2    8          0.02082220
 ao     1    7    3    1          0.00122277
 ao     1    7    4    1         -0.00070597
 ao     1    7    5    1         -0.00058341
 ao     1    7    3    2          0.00228683
 ao     1    7    4    2         -0.00132030
 ao     1    7    5    2         -0.00109110
 ao     1    7    3    3          0.05439988
 ao     1    7    3    4         -0.00015338
 ao     1    7    3    5         -0.00012675
 ao     1    7    4    3         -0.00015338
 ao     1    7    4    4          0.05422277
 ao     1    7    4    5          0.00007318
 ao     1    7    5    3         -0.00012675
 ao     1    7    5    4          0.00007318
 ao     1    7    5    5          0.05419470
 ao     1    7    3    6          0.00062113
 ao     1    7    4    6          0.01462522
 ao     1    7    5    6         -0.00648767
 ao     1    7    3    7          0.01416919
 ao     1    7    4    7         -0.00818058
 ao     1    7    5    7         -0.00676044
 ao     1    7    3    8         -0.01235526
 ao     1    7    4    8         -0.00785052
 ao     1    7    5    8         -0.00648768
 ao     1    7    6    1          0.00714527
 ao     1    7    6    2          0.02082219
 ao     1    7    6    3          0.00062113
 ao     1    7    6    4          0.01462522
 ao     1    7    6    5         -0.00648767
 ao     1    7    6    6          0.02865841
 ao     1    7    6    7          0.00763422
 ao     1    7    6    8          0.00738324
 ao     1    7    7    1          0.00729739
 ao     1    7    7    2          0.02171463
 ao     1    7    7    3          0.01416919
 ao     1    7    7    4         -0.00818058
 ao     1    7    7    5         -0.00676044
 ao     1    7    7    6          0.00763422
 ao     1    7    7    7          0.03036378
 ao     1    7    7    8          0.00763422
 ao     1    7    8    1          0.00714527
 ao     1    7    8    2          0.02082220
 ao     1    7    8    3         -0.01235526
 ao     1    7    8    4         -0.00785052
 ao     1    7    8    5         -0.00648768
 ao     1    7    8    6          0.00738324
 ao     1    7    8    7          0.00763422
 ao     1    7    8    8          0.02865841
 ao     1    8    1    1          0.15971248
 ao     1    8    1    2          0.02903287
 ao     1    8    1    3         -0.00122277
 ao     1    8    1    4         -0.00070597
 ao     1    8    1    5         -0.00058341
 ao     1    8    1    6          0.00714527
 ao     1    8    1    7          0.00714527
 ao     1    8    1    8          0.00729739
 ao     1    8    2    1          0.02903287
 ao     1    8    2    2          0.05427029
 ao     1    8    2    3         -0.00228683
 ao     1    8    2    4         -0.00132030
 ao     1    8    2    5         -0.00109110
 ao     1    8    2    6          0.02082219
 ao     1    8    2    7          0.02082220
 ao     1    8    2    8          0.02171463
 ao     1    8    3    1         -0.00122277
 ao     1    8    4    1         -0.00070597
 ao     1    8    5    1         -0.00058341
 ao     1    8    3    2         -0.00228683
 ao     1    8    4    2         -0.00132030
 ao     1    8    5    2         -0.00109110
 ao     1    8    3    3          0.05439988
 ao     1    8    3    4          0.00015338
 ao     1    8    3    5          0.00012675
 ao     1    8    4    3          0.00015338
 ao     1    8    4    4          0.05422277
 ao     1    8    4    5          0.00007318
 ao     1    8    5    3          0.00012675
 ao     1    8    5    4          0.00007318
 ao     1    8    5    5          0.05419470
 ao     1    8    3    6         -0.00062113
 ao     1    8    4    6          0.01462522
 ao     1    8    5    6         -0.00648767
 ao     1    8    3    7          0.01235526
 ao     1    8    4    7         -0.00785052
 ao     1    8    5    7         -0.00648768
 ao     1    8    3    8         -0.01416919
 ao     1    8    4    8         -0.00818058
 ao     1    8    5    8         -0.00676044
 ao     1    8    6    1          0.00714527
 ao     1    8    6    2          0.02082219
 ao     1    8    6    3         -0.00062113
 ao     1    8    6    4          0.01462522
 ao     1    8    6    5         -0.00648767
 ao     1    8    6    6          0.02865841
 ao     1    8    6    7          0.00738324
 ao     1    8    6    8          0.00763422
 ao     1    8    7    1          0.00714527
 ao     1    8    7    2          0.02082220
 ao     1    8    7    3          0.01235526
 ao     1    8    7    4         -0.00785052
 ao     1    8    7    5         -0.00648768
 ao     1    8    7    6          0.00738324
 ao     1    8    7    7          0.02865841
 ao     1    8    7    8          0.00763422
 ao     1    8    8    1          0.00729739
 ao     1    8    8    2          0.02171463
 ao     1    8    8    3         -0.01416919
 ao     1    8    8    4         -0.00818058
 ao     1    8    8    5         -0.00676044
 ao     1    8    8    6          0.00763422
 ao     1    8    8    7          0.00763422
 ao     1    8    8    8          0.03036378
 ao     2    1    1    1          0.64084888
 ao     2    1    1    2          0.11746124
 ao     2    1    1    6          0.02903286
 ao     2    1    1    7          0.02903287
 ao     2    1    1    8          0.02903287
 ao     2    1    2    1          0.11746124
 ao     2    1    2    2          0.22093566
 ao     2    1    2    6          0.08555780
 ao     2    1    2    7          0.08555783
 ao     2    1    2    8          0.08555783
 ao     2    1    3    3          0.22097739
 ao     2    1    4    4          0.22097739
 ao     2    1    5    5          0.22097739
 ao     2    1    4    6          0.06159400
 ao     2    1    5    6         -0.02545065
 ao     2    1    3    7          0.05334199
 ao     2    1    4    7         -0.03079698
 ao     2    1    5    7         -0.02545066
 ao     2    1    3    8         -0.05334199
 ao     2    1    4    8         -0.03079698
 ao     2    1    5    8         -0.02545066
 ao     2    1    6    1          0.02903286
 ao     2    1    6    2          0.08555780
 ao     2    1    6    4          0.06159400
 ao     2    1    6    5         -0.02545065
 ao     2    1    6    6          0.11816611
 ao     2    1    6    7          0.03050093
 ao     2    1    6    8          0.03050093
 ao     2    1    7    1          0.02903287
 ao     2    1    7    2          0.08555783
 ao     2    1    7    3          0.05334199
 ao     2    1    7    4         -0.03079698
 ao     2    1    7    5         -0.02545066
 ao     2    1    7    6          0.03050093
 ao     2    1    7    7          0.11816613
 ao     2    1    7    8          0.03050092
 ao     2    1    8    1          0.02903287
 ao     2    1    8    2          0.08555783
 ao     2    1    8    3         -0.05334199
 ao     2    1    8    4         -0.03079698
 ao     2    1    8    5         -0.02545066
 ao     2    1    8    6          0.03050093
 ao     2    1    8    7          0.03050092
 ao     2    1    8    8          0.11816613
 ao     2    2    1    1          0.96986387
 ao     2    2    1    2          0.22093566
 ao     2    2    1    6          0.05427027
 ao     2    2    1    7          0.05427029
 ao     2    2    1    8          0.05427029
 ao     2    2    2    1          0.22093566
 ao     2    2    2    2          0.70824547
 ao     2    2    2    6          0.30076529
 ao     2    2    2    7          0.30076537
 ao     2    2    2    8          0.30076537
 ao     2    2    3    3          0.70808625
 ao     2    2    4    4          0.70808625
 ao     2    2    5    5          0.70808625
 ao     2    2    4    6          0.23051852
 ao     2    2    5    6         -0.09525029
 ao     2    2    3    7          0.19963498
 ao     2    2    4    7         -0.11525918
 ao     2    2    5    7         -0.09525032
 ao     2    2    3    8         -0.19963498
 ao     2    2    4    8         -0.11525918
 ao     2    2    5    8         -0.09525032
 ao     2    2    6    1          0.05427027
 ao     2    2    6    2          0.30076529
 ao     2    2    6    4          0.23051852
 ao     2    2    6    5         -0.09525029
 ao     2    2    6    6          0.47277795
 ao     2    2    6    7          0.11387599
 ao     2    2    6    8          0.11387599
 ao     2    2    7    1          0.05427029
 ao     2    2    7    2          0.30076537
 ao     2    2    7    3          0.19963498
 ao     2    2    7    4         -0.11525918
 ao     2    2    7    5         -0.09525032
 ao     2    2    7    6          0.11387599
 ao     2    2    7    7          0.47277800
 ao     2    2    7    8          0.11387592
 ao     2    2    8    1          0.05427029
 ao     2    2    8    2          0.30076537
 ao     2    2    8    3         -0.19963498
 ao     2    2    8    4         -0.11525918
 ao     2    2    8    5         -0.09525032
 ao     2    2    8    6          0.11387599
 ao     2    2    8    7          0.11387592
 ao     2    2    8    8          0.47277800
 ao     2    3    1    3          0.03245163
 ao     2    4    1    4          0.03245163
 ao     2    5    1    5          0.03245163
 ao     2    4    1    6          0.00264061
 ao     2    5    1    6         -0.00109110
 ao     2    3    1    7          0.00228683
 ao     2    4    1    7         -0.00132030
 ao     2    5    1    7         -0.00109110
 ao     2    3    1    8         -0.00228683
 ao     2    4    1    8         -0.00132030
 ao     2    5    1    8         -0.00109110
 ao     2    3    2    3          0.15644927
 ao     2    4    2    4          0.15644927
 ao     2    5    2    5          0.15644927
 ao     2    4    2    6          0.04921648
 ao     2    5    2    6         -0.02033626
 ao     2    3    2    7          0.04262274
 ao     2    4    2    7         -0.02460822
 ao     2    5    2    7         -0.02033626
 ao     2    3    2    8         -0.04262274
 ao     2    4    2    8         -0.02460822
 ao     2    5    2    8         -0.02033626
 ao     2    3    3    1          0.03245163
 ao     2    4    4    1          0.03245163
 ao     2    5    5    1          0.03245163
 ao     2    3    3    2          0.15644927
 ao     2    4    4    2          0.15644927
 ao     2    5    5    2          0.15644927
 ao     2    3    3    6          0.05087085
 ao     2    4    4    6          0.08643457
 ao     2    4    5    6         -0.01469494
 ao     2    5    4    6         -0.01469494
 ao     2    5    5    6          0.05694280
 ao     2    3    3    7          0.07754367
 ao     2    3    4    7         -0.01539954
 ao     2    3    5    7         -0.01272619
 ao     2    4    3    7         -0.01539954
 ao     2    4    4    7          0.05976178
 ao     2    4    5    7          0.00734746
 ao     2    5    3    7         -0.01272619
 ao     2    5    4    7          0.00734746
 ao     2    5    5    7          0.05694282
 ao     2    3    3    8          0.07754367
 ao     2    3    4    8          0.01539954
 ao     2    3    5    8          0.01272619
 ao     2    4    3    8          0.01539954
 ao     2    4    4    8          0.05976178
 ao     2    4    5    8          0.00734746
 ao     2    5    3    8          0.01272619
 ao     2    5    4    8          0.00734746
 ao     2    5    5    8          0.05694282
 ao     2    4    6    1          0.00264061
 ao     2    5    6    1         -0.00109110
 ao     2    4    6    2          0.04921648
 ao     2    5    6    2         -0.02033626
 ao     2    3    6    3          0.05087085
 ao     2    4    6    4          0.08643457
 ao     2    4    6    5         -0.01469494
 ao     2    5    6    4         -0.01469494
 ao     2    5    6    5          0.05694280
 ao     2    4    6    6          0.12080589
 ao     2    5    6    6         -0.04991701
 ao     2    3    6    7          0.01375706
 ao     2    4    6    7          0.00794265
 ao     2    5    6    7         -0.01312760
 ao     2    3    6    8         -0.01375706
 ao     2    4    6    8          0.00794265
 ao     2    5    6    8         -0.01312760
 ao     2    3    7    1          0.00228683
 ao     2    4    7    1         -0.00132030
 ao     2    5    7    1         -0.00109110
 ao     2    3    7    2          0.04262274
 ao     2    4    7    2         -0.02460822
 ao     2    5    7    2         -0.02033626
 ao     2    3    7    3          0.07754367
 ao     2    3    7    4         -0.01539954
 ao     2    3    7    5         -0.01272619
 ao     2    4    7    3         -0.01539954
 ao     2    4    7    4          0.05976178
 ao     2    4    7    5          0.00734746
 ao     2    5    7    3         -0.01272619
 ao     2    5    7    4          0.00734746
 ao     2    5    7    5          0.05694282
 ao     2    3    7    6          0.01375706
 ao     2    4    7    6          0.00794265
 ao     2    5    7    6         -0.01312760
 ao     2    3    7    7          0.10462101
 ao     2    4    7    7         -0.06040290
 ao     2    5    7    7         -0.04991703
 ao     2    4    7    8         -0.01588526
 ao     2    5    7    8         -0.01312760
 ao     2    3    8    1         -0.00228683
 ao     2    4    8    1         -0.00132030
 ao     2    5    8    1         -0.00109110
 ao     2    3    8    2         -0.04262274
 ao     2    4    8    2         -0.02460822
 ao     2    5    8    2         -0.02033626
 ao     2    3    8    3          0.07754367
 ao     2    3    8    4          0.01539954
 ao     2    3    8    5          0.01272619
 ao     2    4    8    3          0.01539954
 ao     2    4    8    4          0.05976178
 ao     2    4    8    5          0.00734746
 ao     2    5    8    3          0.01272619
 ao     2    5    8    4          0.00734746
 ao     2    5    8    5          0.05694282
 ao     2    3    8    6         -0.01375706
 ao     2    4    8    6          0.00794265
 ao     2    5    8    6         -0.01312760
 ao     2    4    8    7         -0.01588526
 ao     2    5    8    7         -0.01312760
 ao     2    3    8    8         -0.10462101
 ao     2    4    8    8         -0.06040290
 ao     2    5    8    8         -0.04991703
 ao     2    6    1    1          0.37132615
 ao     2    6    1    2          0.08555780
 ao     2    6    1    4          0.00661240
 ao     2    6    1    5         -0.00273225
 ao     2    6    1    6          0.02171461
 ao     2    6    1    7          0.02082219
 ao     2    6    1    8          0.02082219
 ao     2    6    2    1          0.08555780
 ao     2    6    2    2          0.30076529
 ao     2    6    2    4          0.04921648
 ao     2    6    2    5         -0.02033626
 ao     2    6    2    6          0.15966803
 ao     2    6    2    7          0.12507255
 ao     2    6    2    8          0.12507255
 ao     2    6    4    1          0.00661240
 ao     2    6    5    1         -0.00273225
 ao     2    6    4    2          0.04921648
 ao     2    6    5    2         -0.02033626
 ao     2    6    3    3          0.29476904
 ao     2    6    4    4          0.30989846
 ao     2    6    4    5         -0.00625148
 ao     2    6    5    4         -0.00625148
 ao     2    6    5    5          0.29735215
 ao     2    6    4    6          0.14703812
 ao     2    6    5    6         -0.06075618
 ao     2    6    3    7          0.08329535
 ao     2    6    4    7         -0.03219920
 ao     2    6    5    7         -0.04630838
 ao     2    6    3    8         -0.08329535
 ao     2    6    4    8         -0.03219920
 ao     2    6    5    8         -0.04630838
 ao     2    6    6    1          0.02171461
 ao     2    6    6    2          0.15966803
 ao     2    6    6    4          0.14703812
 ao     2    6    6    5         -0.06075618
 ao     2    6    6    6          0.31061438
 ao     2    6    6    7          0.05770123
 ao     2    6    6    8          0.05770123
 ao     2    6    7    1          0.02082219
 ao     2    6    7    2          0.12507255
 ao     2    6    7    3          0.08329535
 ao     2    6    7    4         -0.03219920
 ao     2    6    7    5         -0.04630838
 ao     2    6    7    6          0.05770123
 ao     2    6    7    7          0.19764672
 ao     2    6    7    8          0.04683301
 ao     2    6    8    1          0.02082219
 ao     2    6    8    2          0.12507255
 ao     2    6    8    3         -0.08329535
 ao     2    6    8    4         -0.03219920
 ao     2    6    8    5         -0.04630838
 ao     2    6    8    6          0.05770123
 ao     2    6    8    7          0.04683301
 ao     2    6    8    8          0.19764672
 ao     2    7    1    1          0.37132625
 ao     2    7    1    2          0.08555783
 ao     2    7    1    3          0.00572651
 ao     2    7    1    4         -0.00330620
 ao     2    7    1    5         -0.00273225
 ao     2    7    1    6          0.02082219
 ao     2    7    1    7          0.02171463
 ao     2    7    1    8          0.02082220
 ao     2    7    2    1          0.08555783
 ao     2    7    2    2          0.30076537
 ao     2    7    2    3          0.04262274
 ao     2    7    2    4         -0.02460822
 ao     2    7    2    5         -0.02033626
 ao     2    7    2    6          0.12507255
 ao     2    7    2    7          0.15966811
 ao     2    7    2    8          0.12507256
 ao     2    7    3    1          0.00572651
 ao     2    7    4    1         -0.00330620
 ao     2    7    5    1         -0.00273225
 ao     2    7    3    2          0.04262274
 ao     2    7    4    2         -0.02460822
 ao     2    7    5    2         -0.02033626
 ao     2    7    3    3          0.30611618
 ao     2    7    3    4         -0.00655122
 ao     2    7    3    5         -0.00541394
 ao     2    7    4    3         -0.00655122
 ao     2    7    4    4          0.29855146
 ao     2    7    4    5          0.00312574
 ao     2    7    5    3         -0.00541394
 ao     2    7    5    4          0.00312574
 ao     2    7    5    5          0.29735223
 ao     2    7    3    6          0.01376230
 ao     2    7    4    6          0.08823551
 ao     2    7    5    6         -0.04630838
 ao     2    7    3    7          0.12733883
 ao     2    7    4    7         -0.07351902
 ao     2    7    5    7         -0.06075621
 ao     2    7    3    8         -0.06953306
 ao     2    7    4    8         -0.05603620
 ao     2    7    5    8         -0.04630839
 ao     2    7    6    1          0.02082219
 ao     2    7    6    2          0.12507255
 ao     2    7    6    3          0.01376230
 ao     2    7    6    4          0.08823551
 ao     2    7    6    5         -0.04630838
 ao     2    7    6    6          0.19764675
 ao     2    7    6    7          0.05770124
 ao     2    7    6    8          0.04683304
 ao     2    7    7    1          0.02171463
 ao     2    7    7    2          0.15966811
 ao     2    7    7    3          0.12733883
 ao     2    7    7    4         -0.07351902
 ao     2    7    7    5         -0.06075621
 ao     2    7    7    6          0.05770124
 ao     2    7    7    7          0.31061446
 ao     2    7    7    8          0.05770119
 ao     2    7    8    1          0.02082220
 ao     2    7    8    2          0.12507256
 ao     2    7    8    3         -0.06953306
 ao     2    7    8    4         -0.05603620
 ao     2    7    8    5         -0.04630839
 ao     2    7    8    6          0.04683304
 ao     2    7    8    7          0.05770119
 ao     2    7    8    8          0.19764671
 ao     2    8    1    1          0.37132625
 ao     2    8    1    2          0.08555783
 ao     2    8    1    3         -0.00572651
 ao     2    8    1    4         -0.00330620
 ao     2    8    1    5         -0.00273225
 ao     2    8    1    6          0.02082219
 ao     2    8    1    7          0.02082220
 ao     2    8    1    8          0.02171463
 ao     2    8    2    1          0.08555783
 ao     2    8    2    2          0.30076537
 ao     2    8    2    3         -0.04262274
 ao     2    8    2    4         -0.02460822
 ao     2    8    2    5         -0.02033626
 ao     2    8    2    6          0.12507255
 ao     2    8    2    7          0.12507256
 ao     2    8    2    8          0.15966811
 ao     2    8    3    1         -0.00572651
 ao     2    8    4    1         -0.00330620
 ao     2    8    5    1         -0.00273225
 ao     2    8    3    2         -0.04262274
 ao     2    8    4    2         -0.02460822
 ao     2    8    5    2         -0.02033626
 ao     2    8    3    3          0.30611618
 ao     2    8    3    4          0.00655122
 ao     2    8    3    5          0.00541394
 ao     2    8    4    3          0.00655122
 ao     2    8    4    4          0.29855146
 ao     2    8    4    5          0.00312574
 ao     2    8    5    3          0.00541394
 ao     2    8    5    4          0.00312574
 ao     2    8    5    5          0.29735223
 ao     2    8    3    6         -0.01376230
 ao     2    8    4    6          0.08823551
 ao     2    8    5    6         -0.04630838
 ao     2    8    3    7          0.06953306
 ao     2    8    4    7         -0.05603620
 ao     2    8    5    7         -0.04630839
 ao     2    8    3    8         -0.12733883
 ao     2    8    4    8         -0.07351902
 ao     2    8    5    8         -0.06075621
 ao     2    8    6    1          0.02082219
 ao     2    8    6    2          0.12507255
 ao     2    8    6    3         -0.01376230
 ao     2    8    6    4          0.08823551
 ao     2    8    6    5         -0.04630838
 ao     2    8    6    6          0.19764675
 ao     2    8    6    7          0.04683304
 ao     2    8    6    8          0.05770124
 ao     2    8    7    1          0.02082220
 ao     2    8    7    2          0.12507256
 ao     2    8    7    3          0.06953306
 ao     2    8    7    4         -0.05603620
 ao     2    8    7    5         -0.04630839
 ao     2    8    7    6          0.04683304
 ao     2    8    7    7          0.19764671
 ao     2    8    7    8          0.05770119
 ao     2    8    8    1          0.02171463
 ao     2    8    8    2          0.15966811
 ao     2    8    8    3         -0.12733883
 ao     2    8    8    4         -0.07351902
 ao     2    8    8    5         -0.06075621
 ao     2    8    8    6          0.05770124
 ao     2    8    8    7          0.05770119
 ao     2    8    8    8          0.31061446
 ao     3    1    1    3          0.02096043
 ao     4    1    1    4          0.02096043
 ao     5    1    1    5          0.02096043
 ao     4    1    1    6          0.00141193
 ao     5    1    1    6         -0.00058341
 ao     3    1    1    7          0.00122277
 ao     4    1    1    7         -0.00070597
 ao     5    1    1    7         -0.00058341
 ao     3    1    1    8         -0.00122277
 ao     4    1    1    8         -0.00070597
 ao     5    1    1    8         -0.00058341
 ao     3    1    2    3          0.03245163
 ao     4    1    2    4          0.03245163
 ao     5    1    2    5          0.03245163
 ao     4    1    2    6          0.00661240
 ao     5    1    2    6         -0.00273225
 ao     3    1    2    7          0.00572651
 ao     4    1    2    7         -0.00330620
 ao     5    1    2    7         -0.00273225
 ao     3    1    2    8         -0.00572651
 ao     4    1    2    8         -0.00330620
 ao     5    1    2    8         -0.00273225
 ao     3    1    3    1          0.02096043
 ao     4    1    4    1          0.02096043
 ao     5    1    5    1          0.02096043
 ao     3    1    3    2          0.03245163
 ao     4    1    4    2          0.03245163
 ao     5    1    5    2          0.03245163
 ao     3    1    3    6          0.00892276
 ao     4    1    4    6          0.01310200
 ao     4    1    5    6         -0.00172686
 ao     5    1    4    6         -0.00172686
 ao     5    1    5    6          0.00963630
 ao     3    1    3    7          0.01205720
 ao     3    1    4    7         -0.00180966
 ao     3    1    5    7         -0.00149551
 ao     4    1    3    7         -0.00180966
 ao     4    1    4    7          0.00996757
 ao     4    1    5    7          0.00086343
 ao     5    1    3    7         -0.00149551
 ao     5    1    4    7          0.00086343
 ao     5    1    5    7          0.00963631
 ao     3    1    3    8          0.01205720
 ao     3    1    4    8          0.00180966
 ao     3    1    5    8          0.00149551
 ao     4    1    3    8          0.00180966
 ao     4    1    4    8          0.00996757
 ao     4    1    5    8          0.00086343
 ao     5    1    3    8          0.00149551
 ao     5    1    4    8          0.00086343
 ao     5    1    5    8          0.00963631
 ao     4    1    6    1          0.00141193
 ao     5    1    6    1         -0.00058341
 ao     4    1    6    2          0.00661240
 ao     5    1    6    2         -0.00273225
 ao     3    1    6    3          0.00892276
 ao     4    1    6    4          0.01310200
 ao     4    1    6    5         -0.00172686
 ao     5    1    6    4         -0.00172686
 ao     5    1    6    5          0.00963630
 ao     4    1    6    6          0.01209123
 ao     5    1    6    6         -0.00499610
 ao     3    1    6    7          0.00164152
 ao     4    1    6    7          0.00094773
 ao     5    1    6    7         -0.00156641
 ao     3    1    6    8         -0.00164152
 ao     4    1    6    8          0.00094773
 ao     5    1    6    8         -0.00156641
 ao     3    1    7    1          0.00122277
 ao     4    1    7    1         -0.00070597
 ao     5    1    7    1         -0.00058341
 ao     3    1    7    2          0.00572651
 ao     4    1    7    2         -0.00330620
 ao     5    1    7    2         -0.00273225
 ao     3    1    7    3          0.01205720
 ao     3    1    7    4         -0.00180966
 ao     3    1    7    5         -0.00149551
 ao     4    1    7    3         -0.00180966
 ao     4    1    7    4          0.00996757
 ao     4    1    7    5          0.00086343
 ao     5    1    7    3         -0.00149551
 ao     5    1    7    4          0.00086343
 ao     5    1    7    5          0.00963631
 ao     3    1    7    6          0.00164152
 ao     4    1    7    6          0.00094773
 ao     5    1    7    6         -0.00156641
 ao     3    1    7    7          0.01047132
 ao     4    1    7    7         -0.00604561
 ao     5    1    7    7         -0.00499610
 ao     4    1    7    8         -0.00189546
 ao     5    1    7    8         -0.00156641
 ao     3    1    8    1         -0.00122277
 ao     4    1    8    1         -0.00070597
 ao     5    1    8    1         -0.00058341
 ao     3    1    8    2         -0.00572651
 ao     4    1    8    2         -0.00330620
 ao     5    1    8    2         -0.00273225
 ao     3    1    8    3          0.01205720
 ao     3    1    8    4          0.00180966
 ao     3    1    8    5          0.00149551
 ao     4    1    8    3          0.00180966
 ao     4    1    8    4          0.00996757
 ao     4    1    8    5          0.00086343
 ao     5    1    8    3          0.00149551
 ao     5    1    8    4          0.00086343
 ao     5    1    8    5          0.00963631
 ao     3    1    8    6         -0.00164152
 ao     4    1    8    6          0.00094773
 ao     5    1    8    6         -0.00156641
 ao     4    1    8    7         -0.00189546
 ao     5    1    8    7         -0.00156641
 ao     3    1    8    8         -0.01047132
 ao     4    1    8    8         -0.00604561
 ao     5    1    8    8         -0.00499610
 ao     3    2    1    3          0.03245163
 ao     4    2    1    4          0.03245163
 ao     5    2    1    5          0.03245163
 ao     4    2    1    6          0.00264061
 ao     5    2    1    6         -0.00109110
 ao     3    2    1    7          0.00228683
 ao     4    2    1    7         -0.00132030
 ao     5    2    1    7         -0.00109110
 ao     3    2    1    8         -0.00228683
 ao     4    2    1    8         -0.00132030
 ao     5    2    1    8         -0.00109110
 ao     3    2    2    3          0.15644927
 ao     4    2    2    4          0.15644927
 ao     5    2    2    5          0.15644927
 ao     4    2    2    6          0.04921648
 ao     5    2    2    6         -0.02033626
 ao     3    2    2    7          0.04262274
 ao     4    2    2    7         -0.02460822
 ao     5    2    2    7         -0.02033626
 ao     3    2    2    8         -0.04262274
 ao     4    2    2    8         -0.02460822
 ao     5    2    2    8         -0.02033626
 ao     3    2    3    1          0.03245163
 ao     4    2    4    1          0.03245163
 ao     5    2    5    1          0.03245163
 ao     3    2    3    2          0.15644927
 ao     4    2    4    2          0.15644927
 ao     5    2    5    2          0.15644927
 ao     3    2    3    6          0.05087085
 ao     4    2    4    6          0.08643457
 ao     4    2    5    6         -0.01469494
 ao     5    2    4    6         -0.01469494
 ao     5    2    5    6          0.05694280
 ao     3    2    3    7          0.07754367
 ao     3    2    4    7         -0.01539954
 ao     3    2    5    7         -0.01272619
 ao     4    2    3    7         -0.01539954
 ao     4    2    4    7          0.05976178
 ao     4    2    5    7          0.00734746
 ao     5    2    3    7         -0.01272619
 ao     5    2    4    7          0.00734746
 ao     5    2    5    7          0.05694282
 ao     3    2    3    8          0.07754367
 ao     3    2    4    8          0.01539954
 ao     3    2    5    8          0.01272619
 ao     4    2    3    8          0.01539954
 ao     4    2    4    8          0.05976178
 ao     4    2    5    8          0.00734746
 ao     5    2    3    8          0.01272619
 ao     5    2    4    8          0.00734746
 ao     5    2    5    8          0.05694282
 ao     4    2    6    1          0.00264061
 ao     5    2    6    1         -0.00109110
 ao     4    2    6    2          0.04921648
 ao     5    2    6    2         -0.02033626
 ao     3    2    6    3          0.05087085
 ao     4    2    6    4          0.08643457
 ao     4    2    6    5         -0.01469494
 ao     5    2    6    4         -0.01469494
 ao     5    2    6    5          0.05694280
 ao     4    2    6    6          0.12080589
 ao     5    2    6    6         -0.04991701
 ao     3    2    6    7          0.01375706
 ao     4    2    6    7          0.00794265
 ao     5    2    6    7         -0.01312760
 ao     3    2    6    8         -0.01375706
 ao     4    2    6    8          0.00794265
 ao     5    2    6    8         -0.01312760
 ao     3    2    7    1          0.00228683
 ao     4    2    7    1         -0.00132030
 ao     5    2    7    1         -0.00109110
 ao     3    2    7    2          0.04262274
 ao     4    2    7    2         -0.02460822
 ao     5    2    7    2         -0.02033626
 ao     3    2    7    3          0.07754367
 ao     3    2    7    4         -0.01539954
 ao     3    2    7    5         -0.01272619
 ao     4    2    7    3         -0.01539954
 ao     4    2    7    4          0.05976178
 ao     4    2    7    5          0.00734746
 ao     5    2    7    3         -0.01272619
 ao     5    2    7    4          0.00734746
 ao     5    2    7    5          0.05694282
 ao     3    2    7    6          0.01375706
 ao     4    2    7    6          0.00794265
 ao     5    2    7    6         -0.01312760
 ao     3    2    7    7          0.10462101
 ao     4    2    7    7         -0.06040290
 ao     5    2    7    7         -0.04991703
 ao     4    2    7    8         -0.01588526
 ao     5    2    7    8         -0.01312760
 ao     3    2    8    1         -0.00228683
 ao     4    2    8    1         -0.00132030
 ao     5    2    8    1         -0.00109110
 ao     3    2    8    2         -0.04262274
 ao     4    2    8    2         -0.02460822
 ao     5    2    8    2         -0.02033626
 ao     3    2    8    3          0.07754367
 ao     3    2    8    4          0.01539954
 ao     3    2    8    5          0.01272619
 ao     4    2    8    3          0.01539954
 ao     4    2    8    4          0.05976178
 ao     4    2    8    5          0.00734746
 ao     5    2    8    3          0.01272619
 ao     5    2    8    4          0.00734746
 ao     5    2    8    5          0.05694282
 ao     3    2    8    6         -0.01375706
 ao     4    2    8    6          0.00794265
 ao     5    2    8    6         -0.01312760
 ao     4    2    8    7         -0.01588526
 ao     5    2    8    7         -0.01312760
 ao     3    2    8    8         -0.10462101
 ao     4    2    8    8         -0.06040290
 ao     5    2    8    8         -0.04991703
 ao     3    3    1    1          0.96712375
 ao     4    4    1    1          0.96712375
 ao     5    5    1    1          0.96712375
 ao     3    3    1    2          0.22097739
 ao     4    4    1    2          0.22097739
 ao     5    5    1    2          0.22097739
 ao     3    3    1    6          0.05413420
 ao     4    4    1    6          0.05448841
 ao     4    5    1    6         -0.00014636
 ao     5    4    1    6         -0.00014636
 ao     5    5    1    6          0.05419468
 ao     3    3    1    7          0.05439988
 ao     3    4    1    7         -0.00015338
 ao     3    5    1    7         -0.00012675
 ao     4    3    1    7         -0.00015338
 ao     4    4    1    7          0.05422277
 ao     4    5    1    7          0.00007318
 ao     5    3    1    7         -0.00012675
 ao     5    4    1    7          0.00007318
 ao     5    5    1    7          0.05419470
 ao     3    3    1    8          0.05439988
 ao     3    4    1    8          0.00015338
 ao     3    5    1    8          0.00012675
 ao     4    3    1    8          0.00015338
 ao     4    4    1    8          0.05422277
 ao     4    5    1    8          0.00007318
 ao     5    3    1    8          0.00012675
 ao     5    4    1    8          0.00007318
 ao     5    5    1    8          0.05419470
 ao     3    3    2    1          0.22097739
 ao     4    4    2    1          0.22097739
 ao     5    5    2    1          0.22097739
 ao     3    3    2    2          0.70808625
 ao     4    4    2    2          0.70808625
 ao     5    5    2    2          0.70808625
 ao     3    3    2    6          0.29476904
 ao     4    4    2    6          0.30989846
 ao     4    5    2    6         -0.00625148
 ao     5    4    2    6         -0.00625148
 ao     5    5    2    6          0.29735215
 ao     3    3    2    7          0.30611618
 ao     3    4    2    7         -0.00655122
 ao     3    5    2    7         -0.00541394
 ao     4    3    2    7         -0.00655122
 ao     4    4    2    7          0.29855146
 ao     4    5    2    7          0.00312574
 ao     5    3    2    7         -0.00541394
 ao     5    4    2    7          0.00312574
 ao     5    5    2    7          0.29735223
 ao     3    3    2    8          0.30611618
 ao     3    4    2    8          0.00655122
 ao     3    5    2    8          0.00541394
 ao     4    3    2    8          0.00655122
 ao     4    4    2    8          0.29855146
 ao     4    5    2    8          0.00312574
 ao     5    3    2    8          0.00541394
 ao     5    4    2    8          0.00312574
 ao     5    5    2    8          0.29735223
 ao     3    3    3    3          0.76280454
 ao     3    3    4    4          0.68056750
 ao     3    3    5    5          0.68056750
 ao     3    4    3    4          0.04111852
 ao     3    4    4    3          0.04111852
 ao     3    5    3    5          0.04111852
 ao     3    5    5    3          0.04111852
 ao     4    3    3    4          0.04111852
 ao     4    3    4    3          0.04111852
 ao     4    4    3    3          0.68056750
 ao     4    4    4    4          0.76280454
 ao     4    4    5    5          0.68056750
 ao     4    5    4    5          0.04111852
 ao     4    5    5    4          0.04111852
 ao     5    3    3    5          0.04111852
 ao     5    3    5    3          0.04111852
 ao     5    4    4    5          0.04111852
 ao     5    4    5    4          0.04111852
 ao     5    5    3    3          0.68056750
 ao     5    5    4    4          0.68056750
 ao     5    5    5    5          0.76280454
 ao     3    3    4    6          0.21938922
 ao     3    3    5    6         -0.09065166
 ao     3    4    3    6          0.01005542
 ao     3    5    3    6         -0.00415490
 ao     4    3    3    6          0.01005542
 ao     4    4    4    6          0.25062983
 ao     4    4    5    6         -0.09525048
 ao     4    5    4    6         -0.00875372
 ao     4    5    5    6          0.01195566
 ao     5    3    3    6         -0.00415490
 ao     5    4    4    6         -0.00875372
 ao     5    4    5    6          0.01195566
 ao     5    5    4    6          0.22128945
 ao     5    5    5    6         -0.09974664
 ao     3    3    3    7          0.21464223
 ao     3    3    4    7         -0.11386819
 ao     3    3    5    7         -0.09410081
 ao     3    4    3    7         -0.00920137
 ao     3    4    4    7          0.01111792
 ao     3    4    5    7          0.00199135
 ao     3    5    3    7         -0.00760402
 ao     3    5    4    7          0.00199135
 ao     3    5    5    7          0.01035391
 ao     4    3    3    7         -0.00920137
 ao     4    3    4    7          0.01111792
 ao     4    3    5    7          0.00199135
 ao     4    4    3    7          0.19240638
 ao     4    4    4    7         -0.12114116
 ao     4    4    5    7         -0.09180140
 ao     4    5    3    7          0.00199135
 ao     4    5    4    7         -0.00530461
 ao     4    5    5    7         -0.00597782
 ao     5    3    3    7         -0.00760402
 ao     5    3    4    7          0.00199135
 ao     5    3    5    7          0.01035391
 ao     5    4    3    7          0.00199135
 ao     5    4    4    7         -0.00530461
 ao     5    4    5    7         -0.00597782
 ao     5    5    3    7          0.19164237
 ao     5    5    4    7         -0.11064465
 ao     5    5    5    7         -0.09974668
 ao     3    3    3    8         -0.21464223
 ao     3    3    4    8         -0.11386819
 ao     3    3    5    8         -0.09410081
 ao     3    4    3    8         -0.00920137
 ao     3    4    4    8         -0.01111792
 ao     3    4    5    8         -0.00199135
 ao     3    5    3    8         -0.00760402
 ao     3    5    4    8         -0.00199135
 ao     3    5    5    8         -0.01035391
 ao     4    3    3    8         -0.00920137
 ao     4    3    4    8         -0.01111792
 ao     4    3    5    8         -0.00199135
 ao     4    4    3    8         -0.19240638
 ao     4    4    4    8         -0.12114116
 ao     4    4    5    8         -0.09180140
 ao     4    5    3    8         -0.00199135
 ao     4    5    4    8         -0.00530461
 ao     4    5    5    8         -0.00597782
 ao     5    3    3    8         -0.00760402
 ao     5    3    4    8         -0.00199135
 ao     5    3    5    8         -0.01035391
 ao     5    4    3    8         -0.00199135
 ao     5    4    4    8         -0.00530461
 ao     5    4    5    8         -0.00597782
 ao     5    5    3    8         -0.19164237
 ao     5    5    4    8         -0.11064465
 ao     5    5    5    8         -0.09974668
 ao     3    3    6    1          0.05413420
 ao     4    4    6    1          0.05448841
 ao     4    5    6    1         -0.00014636
 ao     5    4    6    1         -0.00014636
 ao     5    5    6    1          0.05419468
 ao     3    3    6    2          0.29476904
 ao     4    4    6    2          0.30989846
 ao     4    5    6    2         -0.00625148
 ao     5    4    6    2         -0.00625148
 ao     5    5    6    2          0.29735215
 ao     3    3    6    4          0.21938922
 ao     3    3    6    5         -0.09065166
 ao     3    4    6    3          0.01005542
 ao     3    5    6    3         -0.00415490
 ao     4    3    6    3          0.01005542
 ao     4    4    6    4          0.25062983
 ao     4    4    6    5         -0.09525048
 ao     4    5    6    4         -0.00875372
 ao     4    5    6    5          0.01195566
 ao     5    3    6    3         -0.00415490
 ao     5    4    6    4         -0.00875372
 ao     5    4    6    5          0.01195566
 ao     5    5    6    4          0.22128945
 ao     5    5    6    5         -0.09974664
 ao     3    3    6    6          0.45037764
 ao     4    4    6    6          0.50729897
 ao     4    5    6    6         -0.02351990
 ao     5    4    6    6         -0.02351990
 ao     5    5    6    6          0.46009607
 ao     3    3    6    7          0.11430236
 ao     3    4    6    7          0.00041780
 ao     3    5    6    7         -0.00260724
 ao     4    3    6    7          0.00041780
 ao     4    4    6    7          0.11381993
 ao     4    5    6    7         -0.00150529
 ao     5    3    6    7         -0.00260724
 ao     5    4    6    7         -0.00150529
 ao     5    5    6    7          0.11338852
 ao     3    3    6    8          0.11430236
 ao     3    4    6    8         -0.00041780
 ao     3    5    6    8          0.00260724
 ao     4    3    6    8         -0.00041780
 ao     4    4    6    8          0.11381993
 ao     4    5    6    8         -0.00150529
 ao     5    3    6    8          0.00260724
 ao     5    4    6    8         -0.00150529
 ao     5    5    6    8          0.11338852
 ao     3    3    7    1          0.05439988
 ao     3    4    7    1         -0.00015338
 ao     3    5    7    1         -0.00012675
 ao     4    3    7    1         -0.00015338
 ao     4    4    7    1          0.05422277
[...]
  Building from file    2.5819888974716095E-011
 fockfile: tols    2.5819888974716095E-011   9.9999999999999995E-007   5.6674385322996044E-005   4.5558304386654703E-007
 int2e_file: read    613 integrals in record     1 of      1.
  int2e_file: get range                     1                    8                    1                    8                    1                    8                    1                    8                    6                  607
 int2e_file: EOF at record    2 of     1?
 int2e_file: EOF at record    2 of     1?
                  2    2  8.8319E-05  3.9960E-02    0.1898     0.0
 rohf_wrap.F: in g_x =    1              0.00008832
 rohf_wrap.F: out g_x =    1              0.00002108
 *** fock_2e: xc_active  F
  int2e_file: rewinding ./scratch/ammonia.aoints.0
  oread, owrite, incmax, incmin, incomplete  T F                   -1                   -1                   -1
  Building from file    2.5819888974716095E-011
 fockfile: tols    2.5819888974716095E-011   9.9999999999999995E-007   8.9705371774848268E-006   9.9999999999999995E-007
 int2e_file: read    613 integrals in record     1 of      1.
  int2e_file: get range                     1                    8                    1                    8                    1                    8                    1                    8                    6                  607
 int2e_file: EOF at record    2 of     1?
 int2e_file: EOF at record    2 of     1?
                  3    3  2.5279E-07  1.1438E-04    0.0029     0.0

                              ----- Line search ------

        step       energy         lsg     num-lsg   num-lsh   lsrat    time
      ------- ---------------- --------- --------- --------- ------- --------
       0.0000     -55.45456026 -1.22D-06  0.00D+00  0.00D+00 0.0D+00      0.0

 global array: rohf_s_e: MOs[1:8,1:8],  handle: -992 

            1           2           3           4           5           6  
       ----------- ----------- ----------- ----------- ----------- -----------
   1       0.99341    -0.21955     0.00000     0.00000    -0.08943    -0.18436
   2       0.03182     0.73742    -0.00000    -0.00000     0.45079     1.25693
   3       0.00000    -0.00000     0.59259    -0.00000     0.00000     0.00000
   4       0.00000     0.00000     0.00000     0.59259    -0.00000     0.00000
   5      -0.00508    -0.13487    -0.00000     0.00000     0.88964    -0.57349
   6      -0.00664     0.15963     0.00000     0.49679    -0.12535    -0.71342
   7      -0.00664     0.15963     0.43023    -0.24839    -0.12535    -0.71342
   8      -0.00664     0.15963    -0.43023    -0.24839    -0.12535    -0.71342

            7           8  
       ----------- -----------
   1       0.00000     0.00000
   2      -0.00000    -0.00000
   3       0.00000     1.05040
   4       1.05040    -0.00000
   5       0.00000     0.00000
   6      -0.99277     0.00000
   7       0.49639    -0.85977
   8       0.49639     0.85977

 global array: rohf: cdens[1:8,1:8],  handle: -991 

            1           2           3           4           5           6  
       ----------- ----------- ----------- ----------- ----------- -----------
   1       2.08612    -0.34121     0.00000     0.00000    -0.10999    -0.06087
   2      -0.34121     1.49602    -0.00000    -0.00000     0.60284     0.12199
   3       0.00000    -0.00000     0.70233    -0.00000     0.00000     0.00000
   4       0.00000    -0.00000    -0.00000     0.70233     0.00000     0.58878
   5      -0.10999     0.60284     0.00000     0.00000     1.61937    -0.26603
   6      -0.06087     0.12199     0.00000     0.58878    -0.26603     0.57607
   7      -0.06087     0.12199     0.50990    -0.29439    -0.26603    -0.16432
   8      -0.06087     0.12199    -0.50990    -0.29439    -0.26603    -0.16432

            7           8  
       ----------- -----------
   1      -0.06087    -0.06087
   2       0.12199     0.12199
   3       0.50990    -0.50990
   4      -0.29439    -0.29439
   5      -0.26603    -0.26603
   6      -0.16432    -0.16432
   7       0.57607    -0.16432
   8      -0.16432     0.57607

 global array: rohf: hcore[1:8,1:8],  handle: -989 

            1           2           3           4           5           6  
       ----------- ----------- ----------- ----------- ----------- -----------
   1     -25.75652    -5.92833     0.00000    -0.00000     0.01798    -1.46817
   2      -5.92833    -7.78568     0.00000    -0.00000     0.20675    -3.31259
   3       0.00000     0.00000    -6.47408     0.00000     0.00000     0.00000
   4      -0.00000    -0.00000     0.00000    -6.47408     0.00000    -2.30665
   5       0.01798     0.20675     0.00000     0.00000    -6.36503     1.01527
   6      -1.46817    -3.31259     0.00000    -2.30665     1.01527    -4.65357
   7      -1.46817    -3.31259    -1.99762     1.15332     1.01527    -1.26585
   8      -1.46817    -3.31259     1.99762     1.15332     1.01527    -1.26585

            7           8  
       ----------- -----------
   1      -1.46817    -1.46817
   2      -3.31259    -3.31259
   3      -1.99762     1.99762
   4       1.15332     1.15332
   5       1.01527     1.01527
   6      -1.26585    -1.26585
   7      -4.65357    -1.26585
   8      -1.26585    -4.65357
 *** fock_2e: xc_active  F
  int2e_file: rewinding ./scratch/ammonia.aoints.0
  oread, owrite, incmax, incmin, incomplete  T F                   -1                   -1                   -1
  Building from file    9.9999999999999995E-008
 fockfile: tols    9.9999999999999995E-008   9.9999999999999995E-007   2.0861175110024597        2.2978541671917028E-008
 int2e_file: read    613 integrals in record     1 of      1.
  int2e_file: get range                     1                    8                    1                    8                    1                    8                    1                    8                    6                  607
 int2e_file: EOF at record    2 of     1?
 int2e_file: EOF at record    2 of     1?
  Symmetrized combined AO fock matrices 

 global array: rohf: cfock[1:8,1:8],  handle: -990 

            1           2           3           4           5           6  
       ----------- ----------- ----------- ----------- ----------- -----------
   1     -15.29804    -3.89295    -0.00000    -0.00000     0.02470    -0.97138
   2      -3.89295    -1.92827     0.00000    -0.00000     0.11910    -0.87679
   3      -0.00000     0.00000    -0.31100     0.00000     0.00000    -0.00000
   4      -0.00000    -0.00000     0.00000    -0.31100     0.00000    -0.43716
   5       0.02470     0.11910     0.00000     0.00000    -0.34183     0.22345
   6      -0.97138    -0.87679    -0.00000    -0.43716     0.22345    -0.53297
   7      -0.97138    -0.87679    -0.37860     0.21858     0.22345    -0.33022
   8      -0.97138    -0.87679     0.37860     0.21858     0.22345    -0.33022

            7           8  
       ----------- -----------
   1      -0.97138    -0.97138
   2      -0.87679    -0.87679
   3      -0.37860     0.37860
   4       0.21858     0.21858
   5       0.22345     0.22345
   6      -0.33022    -0.33022
   7      -0.53297    -0.33022
   8      -0.33022    -0.53297

 global array: rohf_init: FCV[1:8,1:8],  handle: -996 

            1           2           3           4           5           6  
       ----------- ----------- ----------- ----------- ----------- -----------
   1     -15.30590    -0.00075     0.00000     0.00000    -0.00130    -0.00000
   2      -0.00075    -1.08896     0.00000    -0.00000     0.00148     0.00000
   3      -0.00000     0.00000    -0.57036     0.00000     0.00000    -0.00000
   4       0.00000    -0.00000     0.00000    -0.57036     0.00000    -0.00000
   5      -0.00130     0.00148     0.00000     0.00000    -0.35309     0.00000
   6      -0.00000     0.00000     0.00000    -0.00000     0.00000     0.63606
   7      -0.00000    -0.00000    -0.00000    -0.00000     0.00000    -0.00000
   8       0.00000    -0.00000    -0.00000     0.00000    -0.00000    -0.00000

            7           8  
       ----------- -----------
   1      -0.00000     0.00000
   2      -0.00000     0.00000
   3      -0.00000    -0.00000
   4      -0.00000     0.00000
   5       0.00000    -0.00000
   6      -0.00000    -0.00000
   7       0.72476     0.00000
   8       0.00000     0.72476
  e1o=  0.00000000D+00, e1c= -9.89408470D+01, e2o=  0.00000000D+00, e2c=  3.15817563D+01

 Wrote rohf: cfock to ./scratch/ammonia.cfock

 total energy =     -55.454560873791
 1-e energy   =     -98.940846994298
 2-e energy   =      31.581756289792
 nucl. energy =      11.904529830715

       1.0000     -55.45456087 -1.32D-10 -1.10D-10  1.22D-06 1.1D-04      0.0

              iter       energy          gnorm     gmax       time
             ----- ------------------- --------- --------- --------
                 4      -55.4545608738  3.78D-07  2.53D-07      0.0


                Eigenvalues
                -----------

              1      
    1  -15.3059
    2   -1.0890
    3   -0.5704
    4   -0.5704
    5   -0.3531
    6    0.6361
    7    0.7248
    8    0.7248

 Wrote molecular orbitals to ./perm/ammonia.movecs



       Final RHF  results 
       ------------------ 

         Total SCF energy =    -55.454560873791
      One-electron energy =    -98.940846994298
      Two-electron energy =     31.581756289792
 Nuclear repulsion energy =     11.904529830715

        Time for solution =      0.0s


             Final eigenvalues
             -----------------

              1      
    1  -15.3059
    2   -1.0890
    3   -0.5704
    4   -0.5704
    5   -0.3531
    6    0.6361
    7    0.7248
    8    0.7248

                       ROHF Final Molecular Orbital Analysis
                       -------------------------------------

 Vector    1  Occ=2.000000D+00  E=-1.530590D+01
              MO Center=  1.8D-17, -1.0D-07,  1.2D-01, r^2= 2.0D-02
   Bfn.  Coefficient  Atom+Function         Bfn.  Coefficient  Atom+Function  
  ----- ------------  ---------------      ----- ------------  ---------------
     1      0.993388  1 N  s          

 Vector    2  Occ=2.000000D+00  E=-1.088961D+00
              MO Center=  2.9D-16, -1.9D-08, -9.5D-02, r^2= 7.5D-01
   Bfn.  Coefficient  Atom+Function         Bfn.  Coefficient  Atom+Function  
  ----- ------------  ---------------      ----- ------------  ---------------
     2      0.736514  1 N  s                  1     -0.219425  1 N  s          
     6      0.159877  2 H  s                  7      0.159877  3 H  s          
     8      0.159877  4 H  s          

 Vector    3  Occ=2.000000D+00  E=-5.703610D-01
              MO Center=  5.6D-10, -2.2D-01, -6.3D-02, r^2= 9.7D-01
   Bfn.  Coefficient  Atom+Function         Bfn.  Coefficient  Atom+Function  
  ----- ------------  ---------------      ----- ------------  ---------------
     3      0.592591  1 N  px                 7      0.430231  3 H  s          
     8     -0.430231  4 H  s          

 Vector    4  Occ=2.000000D+00  E=-5.703608D-01
              MO Center= -5.6D-10,  2.2D-01, -6.3D-02, r^2= 9.7D-01
   Bfn.  Coefficient  Atom+Function         Bfn.  Coefficient  Atom+Function  
  ----- ------------  ---------------      ----- ------------  ---------------
     4      0.592591  1 N  py                 6      0.496788  2 H  s          
     7     -0.248394  3 H  s                  8     -0.248394  4 H  s          

 Vector    5  Occ=2.000000D+00  E=-3.530878D-01
              MO Center=  1.7D-18, -1.0D-07,  2.9D-01, r^2= 5.9D-01
   Bfn.  Coefficient  Atom+Function         Bfn.  Coefficient  Atom+Function  
  ----- ------------  ---------------      ----- ------------  ---------------
     5      0.889373  1 N  pz                 2      0.452263  1 N  s          

 Vector    6  Occ=0.000000D+00  E= 6.360584D-01
              MO Center=  2.7D-15,  5.3D-08, -2.8D-01, r^2= 1.4D+00
   Bfn.  Coefficient  Atom+Function         Bfn.  Coefficient  Atom+Function  
  ----- ------------  ---------------      ----- ------------  ---------------
     2      1.256926  1 N  s                  6     -0.713416  2 H  s          
     7     -0.713416  3 H  s                  8     -0.713416  4 H  s          
     5     -0.573491  1 N  pz                 1     -0.184360  1 N  s          

 Vector    7  Occ=0.000000D+00  E= 7.247631D-01
              MO Center=  2.4D-10,  2.6D-01, -1.0D-01, r^2= 1.1D+00
   Bfn.  Coefficient  Atom+Function         Bfn.  Coefficient  Atom+Function  
  ----- ------------  ---------------      ----- ------------  ---------------
     4      1.050399  1 N  py                 6     -0.992775  2 H  s          
     7      0.496387  3 H  s                  8      0.496387  4 H  s          

 Vector    8  Occ=0.000000D+00  E= 7.247634D-01
              MO Center= -2.4D-10, -2.6D-01, -1.0D-01, r^2= 1.1D+00
   Bfn.  Coefficient  Atom+Function         Bfn.  Coefficient  Atom+Function  
  ----- ------------  ---------------      ----- ------------  ---------------
     3      1.050399  1 N  px                 7     -0.859768  3 H  s          
     8      0.859768  4 H  s          


                                 Final MO vectors
                                 ----------------


 global array: scf_init: MOs[1:8,1:8],  handle: -1000 

            1           2           3           4           5           6  
       ----------- ----------- ----------- ----------- ----------- -----------
   1       0.99339    -0.21942     0.00000     0.00000    -0.08996    -0.18436
   2       0.03190     0.73651    -0.00000    -0.00000     0.45226     1.25693
   3       0.00000     0.00000     0.59259     0.00000     0.00000     0.00000
   4       0.00000     0.00000    -0.00000     0.59259    -0.00000     0.00000
   5      -0.00501    -0.13666    -0.00000     0.00000     0.88937    -0.57349
   6      -0.00664     0.15988    -0.00000     0.49679    -0.12503    -0.71342
   7      -0.00664     0.15988     0.43023    -0.24839    -0.12503    -0.71342
   8      -0.00664     0.15988    -0.43023    -0.24839    -0.12503    -0.71342

            7           8  
       ----------- -----------
   1       0.00000     0.00000
   2      -0.00000    -0.00000
   3      -0.00000     1.05040
   4       1.05040     0.00000
   5       0.00000     0.00000
   6      -0.99277    -0.00000
   7       0.49639    -0.85977
   8       0.49639     0.85977

 center of mass
 --------------
 x =   0.00000000 y =  -0.00000008 z =   0.08983299

 moments of inertia (a.u.)
 ------------------
           6.106232467123           0.000000000000           0.000000000000
           0.000000000000           6.106236801448           0.000001149327
           0.000000000000           0.000001149327           9.534788195826

  Mulliken analysis of the total density
  --------------------------------------

   Bfn.    Population  Atom+Function
   ---------------------------------
     1      1.995373    1 N  s          
     2      1.595846    1 N  s          
     3      1.059888    1 N  px         
     4      1.059888    1 N  py         
     5      1.752876    1 N  pz         
     6      0.845376    2 H  s          
     7      0.845376    3 H  s          
     8      0.845376    4 H  s          

    Atom       Charge   Shell Charges
 -----------   ------   -------------------------------------------------------
    1 N    7     7.46   2.00  1.60  3.87
    2 H    1     0.85   0.85
    3 H    1     0.85   0.85
    4 H    1     0.85   0.85

       Multipole analysis of the density wrt the origin
       ------------------------------------------------

     L   x y z        total         open         nuclear
     -   - - -        -----         ----         -------
     0   0 0 0     -0.000000      0.000000     10.000000

     1   1 0 0     -0.000000      0.000000      0.000000
     1   0 1 0      0.000000      0.000000     -0.000000
     1   0 0 1     -0.708253      0.000000     -0.000000

     2   2 0 0     -4.397583      0.000000      4.730381
     2   1 1 0      0.000000      0.000000      0.000000
     2   1 0 1      0.000000      0.000000      0.000000
     2   0 2 0     -4.397584      0.000000      4.730377
     2   0 1 1     -0.000000      0.000000     -0.000001
     2   0 0 2     -5.705882      0.000000      1.130694


 Wrote molecular orbitals to ./perm/ammonia.movecs


 Parallel integral file used       1 records with       0 large values

  int2e_file: closing ./scratch/ammonia.aoints.0

 Task  times  cpu:        0.0s     wall:        0.0s
 Summary of allocated global arrays
-----------------------------------
  No active global arrays



                         GA Statistics for process    0
                         ------------------------------

       create   destroy   get      put      acc     scatter   gather  read&inc
calls:  176      176      998      650      334        0        0       31     
number of processes/call 1.00e+00 1.00e+00 1.00e+00 0.00e+00 0.00e+00
bytes total:             1.58e+05 9.70e+04 1.86e+04 0.00e+00 0.00e+00 2.48e+02
bytes remote:            0.00e+00 0.00e+00 0.00e+00 0.00e+00 0.00e+00 0.00e+00
Max memory consumed for GA by this process: 7488 bytes
MA_summarize_allocated_blocks: starting scan ...
MA_summarize_allocated_blocks: scan completed: 0 heap blocks, 0 stack blocks
MA usage statistics:

	allocation statistics:
					      heap	     stack
					      ----	     -----
	current number of blocks	         0	         0
	maximum number of blocks	        17	        14
	current total bytes		         0	         0
	maximum total bytes		   1054600	  22509224
	maximum total K-bytes		      1055	     22510
	maximum total M-bytes		         2	        23


                                NWChem Input Module
                                -------------------





                                     CITATION
                                     --------
                Please cite the following reference when publishing
                           results obtained with NWChem:

                 M. Valiev, E.J. Bylaska, N. Govind, K. Kowalski,
              T.P. Straatsma, H.J.J. van Dam, D. Wang, J. Nieplocha,
                        E. Apra, T.L. Windus, W.A. de Jong
                 "NWChem: a comprehensive and scalable open-source
                  solution for large scale molecular simulations"
                      Comput. Phys. Commun. 181, 1477 (2010)
                           doi:10.1016/j.cpc.2010.04.018

                                      AUTHORS
                                      -------
          E. Apra, E. J. Bylaska, W. A. de Jong, N. Govind, K. Kowalski,
       T. P. Straatsma, M. Valiev, H. J. J. van Dam, D. Wang, T. L. Windus,
        J. Hammond, J. Autschbach, K. Bhaskaran-Nair, J. Brabec, K. Lopata,
       S. A. Fischer, S. Krishnamoorthy, W. Ma, M. Klemm, O. Villa, Y. Chen,
    V. Anisimov, F. Aquino, S. Hirata, M. T. Hackler, T. Risthaus, M. Malagoli,
       A. Marenich, A. Otero-de-la-Roza, J. Mullin, P. Nichols, R. Peverati,
     J. Pittner, Y. Zhao, P.-D. Fan, A. Fonari, M. Williamson, R. J. Harrison,
       J. R. Rehr, M. Dupuis, D. Silverstein, D. M. A. Smith, J. Nieplocha,
        V. Tipparaju, M. Krishnan, B. E. Van Kuiken, A. Vazquez-Mayagoitia,
        L. Jensen, M. Swart, Q. Wu, T. Van Voorhis, A. A. Auer, M. Nooijen,
      L. D. Crosby, E. Brown, G. Cisneros, G. I. Fann, H. Fruchtl, J. Garza,
        K. Hirao, R. A. Kendall, J. A. Nichols, K. Tsemekhman, K. Wolinski,
     J. Anchell, D. E. Bernholdt, P. Borowski, T. Clark, D. Clerc, H. Dachsel,
   M. J. O. Deegan, K. Dyall, D. Elwood, E. Glendening, M. Gutowski, A. C. Hess,
         J. Jaffe, B. G. Johnson, J. Ju, R. Kobayashi, R. Kutteh, Z. Lin,
   R. Littlefield, X. Long, B. Meng, T. Nakajima, S. Niu, L. Pollack, M. Rosing,
   K. Glaesemann, G. Sandrone, M. Stave, H. Taylor, G. Thomas, J. H. van Lenthe,
                               A. T. Wong, Z. Zhang.

 Total times  cpu:        0.0s     wall:        0.0s
