
    -----------------------------------------------------------------------
          Psi4: An Open-Source Ab Initio Electronic Structure Package
                               Psi4 1.1 release

                         Git: Rev {HEAD} add49b9 


    R. M. Parrish, L. A. Burns, D. G. A. Smith, A. C. Simmonett,
    A. E. DePrince III, E. G. Hohenstein, U. Bozkaya, A. Yu. Sokolov,
    R. Di Remigio, R. M. Richard, J. F. Gonthier, A. M. James,
    H. R. McAlexander, A. Kumar, M. Saitow, X. Wang, B. P. Pritchard,
    P. Verma, H. F. Schaefer III, K. Patkowski, R. A. King, E. F. Valeev,
    F. A. Evangelista, J. M. Turney, T. D. Crawford, and C. D. Sherrill,
    J. Chem. Theory Comput. in press (2017).
    (doi: 10.1021/acs.jctc.7b00174)

    -----------------------------------------------------------------------


    Psi4 started on: Sunday, 24 September 2017 03:45PM

    Process ID:   2885
    PSIDATADIR: /home/derek/psi4conda/share/psi4
    Memory:     500.0 MiB
    Threads:    1
    
  ==> Input File <==

--------------------------------------------------------------------------
import numpy as np

molecule helium {
1 1
 He 0 0 0
 H 0.9295 0 0 
units angstrom
}

set {
	basis 6-31G
	reference rhf
	}

wfn = Wavefunction.build(helium,get_global_option('basis'))

mints=MintsHelper(wfn.basisset())
E = energy('scf')
S = mints.ao_overlap()
T = mints.ao_kinetic()
V = mints.ao_potential()
I = mints.ao_eri()
Enuc = helium.nuclear_repulsion_energy()

S_array = S.to_array()
T_array = T.to_array()
V_array = V.to_array()
I_array = I.to_array()

np.save('s',S_array)
np.save('t',T_array)
np.save('v',V_array)
np.save('eri',I_array)
np.save('enuc',Enuc)
print(E)
print(mints.nbf())

--------------------------------------------------------------------------
   => Loading Basis Set <=

    Name: 6-31G
    Role: ORBITAL
    Keyword: BASIS
    atoms 1 entry HE         line    29 file /home/derek/psi4conda/share/psi4/basis/6-31g.gbs 
    atoms 2 entry H          line    21 file /home/derek/psi4conda/share/psi4/basis/6-31g.gbs 


*** tstart() called on derek
*** at Sun Sep 24 15:45:39 2017

   => Loading Basis Set <=

    Name: 6-31G
    Role: ORBITAL
    Keyword: BASIS
    atoms 1 entry HE         line    29 file /home/derek/psi4conda/share/psi4/basis/6-31g.gbs 
    atoms 2 entry H          line    21 file /home/derek/psi4conda/share/psi4/basis/6-31g.gbs 


         ---------------------------------------------------------
                                   SCF
            by Justin Turney, Rob Parrish, and Andy Simmonett
                              RHF Reference
                        1 Threads,    500 MiB Core
         ---------------------------------------------------------

  ==> Geometry <==

    Molecular point group: c2v
    Full point group: C_inf_v

    Geometry (in Angstrom), charge = 1, multiplicity = 1:

       Center              X                  Y                   Z               Mass       
    ------------   -----------------  -----------------  -----------------  -----------------
          HE          0.000000000000     0.000000000000    -0.186964729120     4.002603254150
           H          0.000000000000     0.000000000000     0.742535270880     1.007825032070

  Running in c2v symmetry.

  Rotational constants: A = ************  B =     24.23510  C =     24.23510 [cm^-1]
  Rotational constants: A = ************  B = 726550.11048  C = 726550.11048 [MHz]
  Nuclear repulsion =    1.138627667756859

  Charge       = 1
  Multiplicity = 1
  Electrons    = 2
  Nalpha       = 1
  Nbeta        = 1

  ==> Algorithm <==

  SCF Algorithm Type is DF.
  DIIS enabled.
  MOM disabled.
  Fractional occupation disabled.
  Guess Type is SAD.
  Energy threshold   = 1.00e-06
  Density threshold  = 1.00e-06
  Integral threshold = 0.00e+00

  ==> Primary Basis <==

  Basis Set: 6-31G
    Blend: 6-31G
    Number of shells: 4
    Number of basis function: 4
    Number of Cartesian functions: 4
    Spherical Harmonics?: false
    Max angular momentum: 0

   => Loading Basis Set <=

    Name: (6-31G AUX)
    Role: JKFIT
    Keyword: DF_BASIS_SCF
    atoms 1 entry HE         line    38 file /home/derek/psi4conda/share/psi4/basis/def2-qzvpp-jkfit.gbs 
    atoms 2 entry H          line    50 file /home/derek/psi4conda/share/psi4/basis/cc-pvdz-jkfit.gbs 

  ==> Pre-Iterations <==

   -------------------------------------------------------
    Irrep   Nso     Nmo     Nalpha   Nbeta   Ndocc  Nsocc
   -------------------------------------------------------
     A1         4       4       0       0       0       0
     A2         0       0       0       0       0       0
     B1         0       0       0       0       0       0
     B2         0       0       0       0       0       0
   -------------------------------------------------------
    Total       4       4       1       1       1       0
   -------------------------------------------------------

  ==> Integral Setup <==

  ==> DFJK: Density-Fitted J/K Matrices <==

    J tasked:                  Yes
    K tasked:                  Yes
    wK tasked:                  No
    OpenMP threads:              1
    Integrals threads:           1
    Memory (MB):               375
    Algorithm:                Core
    Integral Cache:           NONE
    Schwarz Cutoff:          1E-12
    Fitting Condition:       1E-12

   => Auxiliary Basis Set <=

  Basis Set: (6-31G AUX)
    Blend: CC-PVDZ-JKFIT + DEF2-QZVPP-JKFIT
    Number of shells: 18
    Number of basis function: 50
    Number of Cartesian functions: 50
    Spherical Harmonics?: false
    Max angular momentum: 2

  Minimum eigenvalue in the overlap matrix is 1.9128245529E-01.
  Using Symmetric Orthogonalization.

  SCF Guess: Superposition of Atomic Densities via on-the-fly atomic UHF.

  ==> Iterations <==

                           Total Energy        Delta E     RMS |[F,P]|

   @DF-RHF iter   0:    -2.33233894079877   -2.33234e+00   6.80609e-02 
   @DF-RHF iter   1:    -2.89595484297935   -5.63616e-01   2.22795e-02 
   @DF-RHF iter   2:    -2.90078306804692   -4.82823e-03   2.86149e-03 DIIS
   @DF-RHF iter   3:    -2.90088063309880   -9.75651e-05   3.66772e-04 DIIS
   @DF-RHF iter   4:    -2.90088212563728   -1.49254e-06   1.15331e-05 DIIS
   @DF-RHF iter   5:    -2.90088212770058   -2.06331e-09   7.34374e-07 DIIS

  ==> Post-Iterations <==

    Orbital Energies (a.u.)
    -----------------------

    Doubly Occupied:                                                      

       1A1    -1.524887  

    Virtual:                                                              

       2A1    -0.333951     3A1     0.464162     4A1     1.064172  

    Final Occupation by Irrep:
             A1    A2    B1    B2 
    DOCC [     1,    0,    0,    0 ]

  Energy converged.

  @DF-RHF Final Energy:    -2.90088212770058

   => Energetics <=

    Nuclear Repulsion Energy =              1.1386276677568585
    One-Electron Energy =                  -5.0292444470905933
    Two-Electron Energy =                   0.9897346516331509
    DFT Exchange-Correlation Energy =       0.0000000000000000
    Empirical Dispersion Energy =           0.0000000000000000
    PCM Polarization Energy =               0.0000000000000000
    EFP Energy =                            0.0000000000000000
    Total Energy =                         -2.9008821277005841



Properties will be evaluated at   0.000000,   0.000000,   0.000000 Bohr

Properties computed using the SCF density matrix

  Nuclear Dipole Moment: (a.u.)
     X:     0.0000      Y:     0.0000      Z:     0.6966

  Electronic Dipole Moment: (a.u.)
     X:     0.0000      Y:     0.0000      Z:     0.3493

  Dipole Moment: (a.u.)
     X:     0.0000      Y:     0.0000      Z:     1.0459     Total:     1.0459

  Dipole Moment: (Debye)
     X:     0.0000      Y:     0.0000      Z:     2.6583     Total:     2.6583


*** tstop() called on derek at Sun Sep 24 15:45:39 2017
Module time:
	user time   =       0.13 seconds =       0.00 minutes
	system time =       0.00 seconds =       0.00 minutes
	total time  =          0 seconds =       0.00 minutes
Total time:
	user time   =       0.13 seconds =       0.00 minutes
	system time =       0.00 seconds =       0.00 minutes
	total time  =          0 seconds =       0.00 minutes

*** Psi4 exiting successfully. Buy a developer a beer!
